+ 0.50779 0 2 tcp 40 ------- 2 0.0 3.0 0 0
- 0.50779 0 2 tcp 40 ------- 2 0.0 3.0 0 0
r 0.52099 0 2 tcp 40 ------- 2 0.0 3.0 0 0
+ 0.52099 2 3 tcp 40 ------- 2 0.0 3.0 0 0
- 0.52099 2 3 tcp 40 ------- 2 0.0 3.0 0 0
r 0.53419 2 3 tcp 40 ------- 2 0.0 3.0 0 0
+ 0.53419 3 2 ack 40 ------- 2 3.0 0.0 0 1
- 0.53419 3 2 ack 40 ------- 2 3.0 0.0 0 1
r 0.54739 3 2 ack 40 ------- 2 3.0 0.0 0 1
+ 0.54739 2 0 ack 40 ------- 2 3.0 0.0 0 1
- 0.54739 2 0 ack 40 ------- 2 3.0 0.0 0 1
r 0.56059 2 0 ack 40 ------- 2 3.0 0.0 0 1
+ 0.56059 0 2 tcp 1040 ------- 2 0.0 3.0 1 2
- 0.56059 0 2 tcp 1040 ------- 2 0.0 3.0 1 2
+ 0.6 1 2 tcp 40 ------- 1 1.0 3.1 0 3
- 0.6 1 2 tcp 40 ------- 1 1.0 3.1 0 3
r 0.6132 1 2 tcp 40 ------- 1 1.0 3.1 0 3
+ 0.6132 2 3 tcp 40 ------- 1 1.0 3.1 0 3
- 0.6132 2 3 tcp 40 ------- 1 1.0 3.1 0 3
r 0.6264 2 3 tcp 40 ------- 1 1.0 3.1 0 3
+ 0.6264 3 2 ack 40 ------- 1 3.1 1.0 0 4
- 0.6264 3 2 ack 40 ------- 1 3.1 1.0 0 4
r 0.6396 3 2 ack 40 ------- 1 3.1 1.0 0 4
+ 0.6396 2 1 ack 40 ------- 1 3.1 1.0 0 4
- 0.6396 2 1 ack 40 ------- 1 3.1 1.0 0 4
r 0.6528 2 1 ack 40 ------- 1 3.1 1.0 0 4
+ 0.6528 1 2 tcp 1040 ------- 1 1.0 3.1 1 5
- 0.6528 1 2 tcp 1040 ------- 1 1.0 3.1 1 5
+ 0.6528 1 2 tcp 1040 ------- 1 1.0 3.1 2 6
r 0.65379 0 2 tcp 1040 ------- 2 0.0 3.0 1 2
+ 0.65379 2 3 tcp 1040 ------- 2 0.0 3.0 1 2
- 0.65379 2 3 tcp 1040 ------- 2 0.0 3.0 1 2
- 0.736 1 2 tcp 1040 ------- 1 1.0 3.1 2 6
r 0.746 1 2 tcp 1040 ------- 1 1.0 3.1 1 5
+ 0.746 2 3 tcp 1040 ------- 1 1.0 3.1 1 5
- 0.746 2 3 tcp 1040 ------- 1 1.0 3.1 1 5
r 0.74699 2 3 tcp 1040 ------- 2 0.0 3.0 1 2
+ 0.74699 3 2 ack 40 ------- 2 3.0 0.0 1 7
- 0.74699 3 2 ack 40 ------- 2 3.0 0.0 1 7
r 0.76019 3 2 ack 40 ------- 2 3.0 0.0 1 7
+ 0.76019 2 0 ack 40 ------- 2 3.0 0.0 1 7
- 0.76019 2 0 ack 40 ------- 2 3.0 0.0 1 7
+ 0.76059 0 2 tcp 1040 ---A--- 2 0.0 3.0 1 8
- 0.76059 0 2 tcp 1040 ---A--- 2 0.0 3.0 1 8
r 0.77339 2 0 ack 40 ------- 2 3.0 0.0 1 7
r 0.8292 1 2 tcp 1040 ------- 1 1.0 3.1 2 6
+ 0.8292 2 3 tcp 1040 ------- 1 1.0 3.1 2 6
- 0.8292 2 3 tcp 1040 ------- 1 1.0 3.1 2 6
r 0.8392 2 3 tcp 1040 ------- 1 1.0 3.1 1 5
+ 0.8392 3 2 ack 40 ------- 1 3.1 1.0 1 9
- 0.8392 3 2 ack 40 ------- 1 3.1 1.0 1 9
r 0.8524 3 2 ack 40 ------- 1 3.1 1.0 1 9
+ 0.8524 2 1 ack 40 ------- 1 3.1 1.0 1 9
- 0.8524 2 1 ack 40 ------- 1 3.1 1.0 1 9
+ 0.8528 1 2 tcp 1040 ---A--- 1 1.0 3.1 1 10
- 0.8528 1 2 tcp 1040 ---A--- 1 1.0 3.1 1 10
r 0.85379 0 2 tcp 1040 ---A--- 2 0.0 3.0 1 8
+ 0.85379 2 3 tcp 1040 ---A--- 2 0.0 3.0 1 8
r 0.8656 2 1 ack 40 ------- 1 3.1 1.0 1 9
+ 0.8656 1 2 tcp 1040 ------- 1 1.0 3.1 2 11
+ 0.8656 1 2 tcp 1040 ------- 1 1.0 3.1 3 12
- 0.9124 2 3 tcp 1040 ---A--- 2 0.0 3.0 1 8
r 0.9224 2 3 tcp 1040 ------- 1 1.0 3.1 2 6
+ 0.9224 3 2 ack 40 ------- 1 3.1 1.0 2 13
- 0.9224 3 2 ack 40 ------- 1 3.1 1.0 2 13
r 0.9356 3 2 ack 40 ------- 1 3.1 1.0 2 13
+ 0.9356 2 1 ack 40 ------- 1 3.1 1.0 2 13
- 0.9356 2 1 ack 40 ------- 1 3.1 1.0 2 13
- 0.936 1 2 tcp 1040 ------- 1 1.0 3.1 2 11
r 0.946 1 2 tcp 1040 ---A--- 1 1.0 3.1 1 10
+ 0.946 2 3 tcp 1040 ---A--- 1 1.0 3.1 1 10
r 0.9488 2 1 ack 40 ------- 1 3.1 1.0 2 13
+ 0.9488 1 2 tcp 1040 ------- 1 1.0 3.1 4 14
- 0.9956 2 3 tcp 1040 ---A--- 1 1.0 3.1 1 10
r 1.0056 2 3 tcp 1040 ---A--- 2 0.0 3.0 1 8
+ 1.0056 3 2 ack 40 ------- 2 3.0 0.0 1 15
- 1.0056 3 2 ack 40 ------- 2 3.0 0.0 1 15
r 1.0188 3 2 ack 40 ------- 2 3.0 0.0 1 15
+ 1.0188 2 0 ack 40 ------- 2 3.0 0.0 1 15
- 1.0188 2 0 ack 40 ------- 2 3.0 0.0 1 15
- 1.0192 1 2 tcp 1040 ------- 1 1.0 3.1 3 12
r 1.0292 1 2 tcp 1040 ------- 1 1.0 3.1 2 11
+ 1.0292 2 3 tcp 1040 ------- 1 1.0 3.1 2 11
r 1.032 2 0 ack 40 ------- 2 3.0 0.0 1 15
- 1.0788 2 3 tcp 1040 ------- 1 1.0 3.1 2 11
r 1.0888 2 3 tcp 1040 ---A--- 1 1.0 3.1 1 10
+ 1.0888 3 2 ack 40 ------- 1 3.1 1.0 2 16
- 1.0888 3 2 ack 40 ------- 1 3.1 1.0 2 16
r 1.102 3 2 ack 40 ------- 1 3.1 1.0 2 16
+ 1.102 2 1 ack 40 ------- 1 3.1 1.0 2 16
- 1.102 2 1 ack 40 ------- 1 3.1 1.0 2 16
- 1.1024 1 2 tcp 1040 ------- 1 1.0 3.1 4 14
r 1.1124 1 2 tcp 1040 ------- 1 1.0 3.1 3 12
+ 1.1124 2 3 tcp 1040 ------- 1 1.0 3.1 3 12
r 1.1152 2 1 ack 40 ------- 1 3.1 1.0 2 16
+ 1.1152 1 2 tcp 1040 ------- 1 1.0 3.1 5 17
- 1.162 2 3 tcp 1040 ------- 1 1.0 3.1 3 12
r 1.172 2 3 tcp 1040 ------- 1 1.0 3.1 2 11
+ 1.172 3 2 ack 40 ------- 1 3.1 1.0 2 18
- 1.172 3 2 ack 40 ------- 1 3.1 1.0 2 18
r 1.1852 3 2 ack 40 ------- 1 3.1 1.0 2 18
+ 1.1852 2 1 ack 40 ------- 1 3.1 1.0 2 18
- 1.1852 2 1 ack 40 ------- 1 3.1 1.0 2 18
- 1.1856 1 2 tcp 1040 ------- 1 1.0 3.1 5 17
r 1.1956 1 2 tcp 1040 ------- 1 1.0 3.1 4 14
+ 1.1956 2 3 tcp 1040 ------- 1 1.0 3.1 4 14
r 1.1984 2 1 ack 40 ------- 1 3.1 1.0 2 18
+ 1.1984 1 2 tcp 1040 ------- 1 1.0 3.1 6 19
+ 1.231391 0 2 tcp 1040 ---A--- 2 0.0 3.0 2 20
- 1.231391 0 2 tcp 1040 ---A--- 2 0.0 3.0 2 20
- 1.2452 2 3 tcp 1040 ------- 1 1.0 3.1 4 14
r 1.2552 2 3 tcp 1040 ------- 1 1.0 3.1 3 12
+ 1.2552 3 2 ack 40 ------- 1 3.1 1.0 3 21
- 1.2552 3 2 ack 40 ------- 1 3.1 1.0 3 21
r 1.2684 3 2 ack 40 ------- 1 3.1 1.0 3 21
+ 1.2684 2 1 ack 40 ------- 1 3.1 1.0 3 21
- 1.2684 2 1 ack 40 ------- 1 3.1 1.0 3 21
- 1.2688 1 2 tcp 1040 ------- 1 1.0 3.1 6 19
r 1.2788 1 2 tcp 1040 ------- 1 1.0 3.1 5 17
+ 1.2788 2 3 tcp 1040 ------- 1 1.0 3.1 5 17
r 1.2816 2 1 ack 40 ------- 1 3.1 1.0 3 21
r 1.324591 0 2 tcp 1040 ---A--- 2 0.0 3.0 2 20
+ 1.324591 2 3 tcp 1040 ---A--- 2 0.0 3.0 2 20
- 1.3284 2 3 tcp 1040 ------- 1 1.0 3.1 5 17
r 1.3384 2 3 tcp 1040 ------- 1 1.0 3.1 4 14
+ 1.3384 3 2 ack 40 ------- 1 3.1 1.0 4 22
- 1.3384 3 2 ack 40 ------- 1 3.1 1.0 4 22
r 1.3516 3 2 ack 40 ------- 1 3.1 1.0 4 22
+ 1.3516 2 1 ack 40 ------- 1 3.1 1.0 4 22
- 1.3516 2 1 ack 40 ------- 1 3.1 1.0 4 22
r 1.362 1 2 tcp 1040 ------- 1 1.0 3.1 6 19
+ 1.362 2 3 tcp 1040 ------- 1 1.0 3.1 6 19
r 1.3648 2 1 ack 40 ------- 1 3.1 1.0 4 22
+ 1.3648 1 2 tcp 1040 ------- 1 1.0 3.1 7 23
- 1.3648 1 2 tcp 1040 ------- 1 1.0 3.1 7 23
- 1.4116 2 3 tcp 1040 ---A--- 2 0.0 3.0 2 20
r 1.4216 2 3 tcp 1040 ------- 1 1.0 3.1 5 17
+ 1.4216 3 2 ack 40 ------- 1 3.1 1.0 5 24
- 1.4216 3 2 ack 40 ------- 1 3.1 1.0 5 24
r 1.4348 3 2 ack 40 ------- 1 3.1 1.0 5 24
+ 1.4348 2 1 ack 40 ------- 1 3.1 1.0 5 24
- 1.4348 2 1 ack 40 ------- 1 3.1 1.0 5 24
r 1.448 2 1 ack 40 ------- 1 3.1 1.0 5 24
+ 1.448 1 2 tcp 1040 ------- 1 1.0 3.1 8 25
- 1.448 1 2 tcp 1040 ------- 1 1.0 3.1 8 25
r 1.458 1 2 tcp 1040 ------- 1 1.0 3.1 7 23
+ 1.458 2 3 tcp 1040 ------- 1 1.0 3.1 7 23
- 1.4948 2 3 tcp 1040 ------- 1 1.0 3.1 6 19
r 1.5048 2 3 tcp 1040 ---A--- 2 0.0 3.0 2 20
+ 1.5048 3 2 ack 40 ------- 2 3.0 0.0 2 26
- 1.5048 3 2 ack 40 ------- 2 3.0 0.0 2 26
r 1.518 3 2 ack 40 ------- 2 3.0 0.0 2 26
+ 1.518 2 0 ack 40 ------- 2 3.0 0.0 2 26
- 1.518 2 0 ack 40 ------- 2 3.0 0.0 2 26
r 1.5312 2 0 ack 40 ------- 2 3.0 0.0 2 26
+ 1.5312 0 2 tcp 1040 ------- 2 0.0 3.0 3 27
- 1.5312 0 2 tcp 1040 ------- 2 0.0 3.0 3 27
r 1.5412 1 2 tcp 1040 ------- 1 1.0 3.1 8 25
+ 1.5412 2 3 tcp 1040 ------- 1 1.0 3.1 8 25
- 1.578 2 3 tcp 1040 ------- 1 1.0 3.1 7 23
r 1.588 2 3 tcp 1040 ------- 1 1.0 3.1 6 19
+ 1.588 3 2 ack 40 ------- 1 3.1 1.0 6 28
- 1.588 3 2 ack 40 ------- 1 3.1 1.0 6 28
r 1.6012 3 2 ack 40 ------- 1 3.1 1.0 6 28
+ 1.6012 2 1 ack 40 ------- 1 3.1 1.0 6 28
- 1.6012 2 1 ack 40 ------- 1 3.1 1.0 6 28
r 1.6144 2 1 ack 40 ------- 1 3.1 1.0 6 28
+ 1.6144 1 2 tcp 1040 ------- 1 1.0 3.1 9 29
- 1.6144 1 2 tcp 1040 ------- 1 1.0 3.1 9 29
r 1.6244 0 2 tcp 1040 ------- 2 0.0 3.0 3 27
+ 1.6244 2 3 tcp 1040 ------- 2 0.0 3.0 3 27
- 1.6612 2 3 tcp 1040 ------- 1 1.0 3.1 8 25
r 1.6712 2 3 tcp 1040 ------- 1 1.0 3.1 7 23
+ 1.6712 3 2 ack 40 ------- 1 3.1 1.0 7 30
- 1.6712 3 2 ack 40 ------- 1 3.1 1.0 7 30
r 1.6844 3 2 ack 40 ------- 1 3.1 1.0 7 30
+ 1.6844 2 1 ack 40 ------- 1 3.1 1.0 7 30
- 1.6844 2 1 ack 40 ------- 1 3.1 1.0 7 30
r 1.6976 2 1 ack 40 ------- 1 3.1 1.0 7 30
+ 1.6976 1 2 tcp 1040 ------- 1 1.0 3.1 10 31
- 1.6976 1 2 tcp 1040 ------- 1 1.0 3.1 10 31
+ 1.6976 1 2 tcp 1040 ------- 1 1.0 3.1 11 32
r 1.7076 1 2 tcp 1040 ------- 1 1.0 3.1 9 29
+ 1.7076 2 3 tcp 1040 ------- 1 1.0 3.1 9 29
- 1.7444 2 3 tcp 1040 ------- 2 0.0 3.0 3 27
r 1.7544 2 3 tcp 1040 ------- 1 1.0 3.1 8 25
+ 1.7544 3 2 ack 40 ------- 1 3.1 1.0 8 33
- 1.7544 3 2 ack 40 ------- 1 3.1 1.0 8 33
r 1.7676 3 2 ack 40 ------- 1 3.1 1.0 8 33
+ 1.7676 2 1 ack 40 ------- 1 3.1 1.0 8 33
- 1.7676 2 1 ack 40 ------- 1 3.1 1.0 8 33
- 1.7808 1 2 tcp 1040 ------- 1 1.0 3.1 11 32
r 1.7808 2 1 ack 40 ------- 1 3.1 1.0 8 33
+ 1.7808 1 2 tcp 1040 ------- 1 1.0 3.1 12 34
r 1.7908 1 2 tcp 1040 ------- 1 1.0 3.1 10 31
+ 1.7908 2 3 tcp 1040 ------- 1 1.0 3.1 10 31
- 1.8276 2 3 tcp 1040 ------- 1 1.0 3.1 9 29
r 1.8376 2 3 tcp 1040 ------- 2 0.0 3.0 3 27
+ 1.8376 3 2 ack 40 ------- 2 3.0 0.0 3 35
- 1.8376 3 2 ack 40 ------- 2 3.0 0.0 3 35
r 1.8508 3 2 ack 40 ------- 2 3.0 0.0 3 35
+ 1.8508 2 0 ack 40 ------- 2 3.0 0.0 3 35
- 1.8508 2 0 ack 40 ------- 2 3.0 0.0 3 35
- 1.864 1 2 tcp 1040 ------- 1 1.0 3.1 12 34
r 1.864 2 0 ack 40 ------- 2 3.0 0.0 3 35
r 1.874 1 2 tcp 1040 ------- 1 1.0 3.1 11 32
+ 1.874 2 3 tcp 1040 ------- 1 1.0 3.1 11 32
- 1.9108 2 3 tcp 1040 ------- 1 1.0 3.1 10 31
r 1.9208 2 3 tcp 1040 ------- 1 1.0 3.1 9 29
+ 1.9208 3 2 ack 40 ------- 1 3.1 1.0 9 36
- 1.9208 3 2 ack 40 ------- 1 3.1 1.0 9 36
r 1.934 3 2 ack 40 ------- 1 3.1 1.0 9 36
+ 1.934 2 1 ack 40 ------- 1 3.1 1.0 9 36
- 1.934 2 1 ack 40 ------- 1 3.1 1.0 9 36
r 1.9472 2 1 ack 40 ------- 1 3.1 1.0 9 36
+ 1.9472 1 2 tcp 1040 ------- 1 1.0 3.1 13 37
- 1.9472 1 2 tcp 1040 ------- 1 1.0 3.1 13 37
r 1.9572 1 2 tcp 1040 ------- 1 1.0 3.1 12 34
+ 1.9572 2 3 tcp 1040 ------- 1 1.0 3.1 12 34
- 1.994 2 3 tcp 1040 ------- 1 1.0 3.1 11 32
r 2.004 2 3 tcp 1040 ------- 1 1.0 3.1 10 31
+ 2.004 3 2 ack 40 ------- 1 3.1 1.0 10 38
- 2.004 3 2 ack 40 ------- 1 3.1 1.0 10 38
r 2.0172 3 2 ack 40 ------- 1 3.1 1.0 10 38
+ 2.0172 2 1 ack 40 ------- 1 3.1 1.0 10 38
- 2.0172 2 1 ack 40 ------- 1 3.1 1.0 10 38
r 2.0304 2 1 ack 40 ------- 1 3.1 1.0 10 38
+ 2.0304 1 2 tcp 1040 ------- 1 1.0 3.1 14 39
- 2.0304 1 2 tcp 1040 ------- 1 1.0 3.1 14 39
r 2.0404 1 2 tcp 1040 ------- 1 1.0 3.1 13 37
+ 2.0404 2 3 tcp 1040 ------- 1 1.0 3.1 13 37
- 2.0772 2 3 tcp 1040 ------- 1 1.0 3.1 12 34
r 2.0872 2 3 tcp 1040 ------- 1 1.0 3.1 11 32
+ 2.0872 3 2 ack 40 ------- 1 3.1 1.0 11 40
- 2.0872 3 2 ack 40 ------- 1 3.1 1.0 11 40
r 2.1004 3 2 ack 40 ------- 1 3.1 1.0 11 40
+ 2.1004 2 1 ack 40 ------- 1 3.1 1.0 11 40
- 2.1004 2 1 ack 40 ------- 1 3.1 1.0 11 40
r 2.1136 2 1 ack 40 ------- 1 3.1 1.0 11 40
+ 2.1136 1 2 tcp 1040 ------- 1 1.0 3.1 15 41
- 2.1136 1 2 tcp 1040 ------- 1 1.0 3.1 15 41
r 2.1236 1 2 tcp 1040 ------- 1 1.0 3.1 14 39
+ 2.1236 2 3 tcp 1040 ------- 1 1.0 3.1 14 39
- 2.1604 2 3 tcp 1040 ------- 1 1.0 3.1 13 37
r 2.1704 2 3 tcp 1040 ------- 1 1.0 3.1 12 34
+ 2.1704 3 2 ack 40 ------- 1 3.1 1.0 12 42
- 2.1704 3 2 ack 40 ------- 1 3.1 1.0 12 42
r 2.1836 3 2 ack 40 ------- 1 3.1 1.0 12 42
+ 2.1836 2 1 ack 40 ------- 1 3.1 1.0 12 42
- 2.1836 2 1 ack 40 ------- 1 3.1 1.0 12 42
r 2.1968 2 1 ack 40 ------- 1 3.1 1.0 12 42
+ 2.1968 1 2 tcp 1040 ------- 1 1.0 3.1 16 43
+ 2.1968 1 2 tcp 1040 ------- 1 1.0 3.1 17 44
- 2.1968 1 2 tcp 1040 ------- 1 1.0 3.1 16 43
+ 2.198436 0 2 tcp 1040 ------- 2 0.0 3.0 4 45
- 2.198436 0 2 tcp 1040 ------- 2 0.0 3.0 4 45
r 2.2068 1 2 tcp 1040 ------- 1 1.0 3.1 15 41
+ 2.2068 2 3 tcp 1040 ------- 1 1.0 3.1 15 41
- 2.2436 2 3 tcp 1040 ------- 1 1.0 3.1 14 39
r 2.2536 2 3 tcp 1040 ------- 1 1.0 3.1 13 37
+ 2.2536 3 2 ack 40 ------- 1 3.1 1.0 13 46
- 2.2536 3 2 ack 40 ------- 1 3.1 1.0 13 46
r 2.2668 3 2 ack 40 ------- 1 3.1 1.0 13 46
+ 2.2668 2 1 ack 40 ------- 1 3.1 1.0 13 46
- 2.2668 2 1 ack 40 ------- 1 3.1 1.0 13 46
r 2.28 2 1 ack 40 ------- 1 3.1 1.0 13 46
+ 2.28 1 2 tcp 1040 ------- 1 1.0 3.1 18 47
- 2.28 1 2 tcp 1040 ------- 1 1.0 3.1 17 44
r 2.29 1 2 tcp 1040 ------- 1 1.0 3.1 16 43
+ 2.29 2 3 tcp 1040 ------- 1 1.0 3.1 16 43
r 2.291636 0 2 tcp 1040 ------- 2 0.0 3.0 4 45
+ 2.291636 2 3 tcp 1040 ------- 2 0.0 3.0 4 45
- 2.3268 2 3 tcp 1040 ------- 1 1.0 3.1 15 41
+ 2.328187 0 2 tcp 1040 ------- 2 0.0 3.0 5 48
- 2.328187 0 2 tcp 1040 ------- 2 0.0 3.0 5 48
r 2.3368 2 3 tcp 1040 ------- 1 1.0 3.1 14 39
+ 2.3368 3 2 ack 40 ------- 1 3.1 1.0 14 49
- 2.3368 3 2 ack 40 ------- 1 3.1 1.0 14 49
r 2.35 3 2 ack 40 ------- 1 3.1 1.0 14 49
+ 2.35 2 1 ack 40 ------- 1 3.1 1.0 14 49
- 2.35 2 1 ack 40 ------- 1 3.1 1.0 14 49
r 2.3632 2 1 ack 40 ------- 1 3.1 1.0 14 49
+ 2.3632 1 2 tcp 1040 ------- 1 1.0 3.1 19 50
- 2.3632 1 2 tcp 1040 ------- 1 1.0 3.1 18 47
r 2.3732 1 2 tcp 1040 ------- 1 1.0 3.1 17 44
+ 2.3732 2 3 tcp 1040 ------- 1 1.0 3.1 17 44
- 2.41 2 3 tcp 1040 ------- 1 1.0 3.1 16 43
r 2.42 2 3 tcp 1040 ------- 1 1.0 3.1 15 41
+ 2.42 3 2 ack 40 ------- 1 3.1 1.0 15 51
- 2.42 3 2 ack 40 ------- 1 3.1 1.0 15 51
r 2.421387 0 2 tcp 1040 ------- 2 0.0 3.0 5 48
+ 2.421387 2 3 tcp 1040 ------- 2 0.0 3.0 5 48
r 2.4332 3 2 ack 40 ------- 1 3.1 1.0 15 51
+ 2.4332 2 1 ack 40 ------- 1 3.1 1.0 15 51
- 2.4332 2 1 ack 40 ------- 1 3.1 1.0 15 51
r 2.4464 2 1 ack 40 ------- 1 3.1 1.0 15 51
+ 2.4464 1 2 tcp 1040 ------- 1 1.0 3.1 20 52
- 2.4464 1 2 tcp 1040 ------- 1 1.0 3.1 19 50
r 2.4564 1 2 tcp 1040 ------- 1 1.0 3.1 18 47
+ 2.4564 2 3 tcp 1040 ------- 1 1.0 3.1 18 47
- 2.4932 2 3 tcp 1040 ------- 2 0.0 3.0 4 45
r 2.5032 2 3 tcp 1040 ------- 1 1.0 3.1 16 43
+ 2.5032 3 2 ack 40 ------- 1 3.1 1.0 16 53
- 2.5032 3 2 ack 40 ------- 1 3.1 1.0 16 53
r 2.5164 3 2 ack 40 ------- 1 3.1 1.0 16 53
+ 2.5164 2 1 ack 40 ------- 1 3.1 1.0 16 53
- 2.5164 2 1 ack 40 ------- 1 3.1 1.0 16 53
r 2.5296 2 1 ack 40 ------- 1 3.1 1.0 16 53
+ 2.5296 1 2 tcp 1040 ------- 1 1.0 3.1 21 54
- 2.5296 1 2 tcp 1040 ------- 1 1.0 3.1 20 52
r 2.5396 1 2 tcp 1040 ------- 1 1.0 3.1 19 50
+ 2.5396 2 3 tcp 1040 ------- 1 1.0 3.1 19 50
- 2.5764 2 3 tcp 1040 ------- 1 1.0 3.1 17 44
r 2.5864 2 3 tcp 1040 ------- 2 0.0 3.0 4 45
+ 2.5864 3 2 ack 40 ------- 2 3.0 0.0 4 55
- 2.5864 3 2 ack 40 ------- 2 3.0 0.0 4 55
r 2.5996 3 2 ack 40 ------- 2 3.0 0.0 4 55
+ 2.5996 2 0 ack 40 ------- 2 3.0 0.0 4 55
- 2.5996 2 0 ack 40 ------- 2 3.0 0.0 4 55
r 2.6128 2 0 ack 40 ------- 2 3.0 0.0 4 55
- 2.6128 1 2 tcp 1040 ------- 1 1.0 3.1 21 54
r 2.6228 1 2 tcp 1040 ------- 1 1.0 3.1 20 52
+ 2.6228 2 3 tcp 1040 ------- 1 1.0 3.1 20 52
- 2.6596 2 3 tcp 1040 ------- 2 0.0 3.0 5 48
r 2.6696 2 3 tcp 1040 ------- 1 1.0 3.1 17 44
+ 2.6696 3 2 ack 40 ------- 1 3.1 1.0 17 56
- 2.6696 3 2 ack 40 ------- 1 3.1 1.0 17 56
+ 2.679511 0 2 tcp 1040 ------- 2 0.0 3.0 6 57
- 2.679511 0 2 tcp 1040 ------- 2 0.0 3.0 6 57
r 2.6828 3 2 ack 40 ------- 1 3.1 1.0 17 56
+ 2.6828 2 1 ack 40 ------- 1 3.1 1.0 17 56
- 2.6828 2 1 ack 40 ------- 1 3.1 1.0 17 56
r 2.696 2 1 ack 40 ------- 1 3.1 1.0 17 56
+ 2.696 1 2 tcp 1040 ------- 1 1.0 3.1 22 58
+ 2.696 1 2 tcp 1040 ------- 1 1.0 3.1 23 59
- 2.696 1 2 tcp 1040 ------- 1 1.0 3.1 22 58
r 2.706 1 2 tcp 1040 ------- 1 1.0 3.1 21 54
+ 2.706 2 3 tcp 1040 ------- 1 1.0 3.1 21 54
- 2.7428 2 3 tcp 1040 ------- 1 1.0 3.1 18 47
r 2.7528 2 3 tcp 1040 ------- 2 0.0 3.0 5 48
+ 2.7528 3 2 ack 40 ------- 2 3.0 0.0 5 60
- 2.7528 3 2 ack 40 ------- 2 3.0 0.0 5 60
r 2.766 3 2 ack 40 ------- 2 3.0 0.0 5 60
+ 2.766 2 0 ack 40 ------- 2 3.0 0.0 5 60
- 2.766 2 0 ack 40 ------- 2 3.0 0.0 5 60
r 2.772711 0 2 tcp 1040 ------- 2 0.0 3.0 6 57
+ 2.772711 2 3 tcp 1040 ------- 2 0.0 3.0 6 57
r 2.7792 2 0 ack 40 ------- 2 3.0 0.0 5 60
- 2.7792 1 2 tcp 1040 ------- 1 1.0 3.1 23 59
r 2.7892 1 2 tcp 1040 ------- 1 1.0 3.1 22 58
+ 2.7892 2 3 tcp 1040 ------- 1 1.0 3.1 22 58
- 2.826 2 3 tcp 1040 ------- 1 1.0 3.1 19 50
r 2.836 2 3 tcp 1040 ------- 1 1.0 3.1 18 47
+ 2.836 3 2 ack 40 ------- 1 3.1 1.0 18 61
- 2.836 3 2 ack 40 ------- 1 3.1 1.0 18 61
+ 2.838338 0 2 tcp 1040 ------- 2 0.0 3.0 7 62
- 2.838338 0 2 tcp 1040 ------- 2 0.0 3.0 7 62
r 2.8492 3 2 ack 40 ------- 1 3.1 1.0 18 61
+ 2.8492 2 1 ack 40 ------- 1 3.1 1.0 18 61
- 2.8492 2 1 ack 40 ------- 1 3.1 1.0 18 61
r 2.8624 2 1 ack 40 ------- 1 3.1 1.0 18 61
+ 2.8624 1 2 tcp 1040 ------- 1 1.0 3.1 24 63
- 2.8624 1 2 tcp 1040 ------- 1 1.0 3.1 24 63
r 2.8724 1 2 tcp 1040 ------- 1 1.0 3.1 23 59
+ 2.8724 2 3 tcp 1040 ------- 1 1.0 3.1 23 59
- 2.9092 2 3 tcp 1040 ------- 1 1.0 3.1 20 52
r 2.9192 2 3 tcp 1040 ------- 1 1.0 3.1 19 50
+ 2.9192 3 2 ack 40 ------- 1 3.1 1.0 19 64
- 2.9192 3 2 ack 40 ------- 1 3.1 1.0 19 64
r 2.931538 0 2 tcp 1040 ------- 2 0.0 3.0 7 62
+ 2.931538 2 3 tcp 1040 ------- 2 0.0 3.0 7 62
r 2.9324 3 2 ack 40 ------- 1 3.1 1.0 19 64
+ 2.9324 2 1 ack 40 ------- 1 3.1 1.0 19 64
- 2.9324 2 1 ack 40 ------- 1 3.1 1.0 19 64
r 2.9456 2 1 ack 40 ------- 1 3.1 1.0 19 64
+ 2.9456 1 2 tcp 1040 ------- 1 1.0 3.1 25 65
- 2.9456 1 2 tcp 1040 ------- 1 1.0 3.1 25 65
r 2.9556 1 2 tcp 1040 ------- 1 1.0 3.1 24 63
+ 2.9556 2 3 tcp 1040 ------- 1 1.0 3.1 24 63
- 2.9924 2 3 tcp 1040 ------- 1 1.0 3.1 21 54
r 3.0024 2 3 tcp 1040 ------- 1 1.0 3.1 20 52
+ 3.0024 3 2 ack 40 ------- 1 3.1 1.0 20 66
- 3.0024 3 2 ack 40 ------- 1 3.1 1.0 20 66
r 3.0156 3 2 ack 40 ------- 1 3.1 1.0 20 66
+ 3.0156 2 1 ack 40 ------- 1 3.1 1.0 20 66
- 3.0156 2 1 ack 40 ------- 1 3.1 1.0 20 66
r 3.0288 2 1 ack 40 ------- 1 3.1 1.0 20 66
+ 3.0288 1 2 tcp 1040 ------- 1 1.0 3.1 26 67
- 3.0288 1 2 tcp 1040 ------- 1 1.0 3.1 26 67
r 3.0388 1 2 tcp 1040 ------- 1 1.0 3.1 25 65
+ 3.0388 2 3 tcp 1040 ------- 1 1.0 3.1 25 65
- 3.0756 2 3 tcp 1040 ------- 2 0.0 3.0 6 57
r 3.0856 2 3 tcp 1040 ------- 1 1.0 3.1 21 54
+ 3.0856 3 2 ack 40 ------- 1 3.1 1.0 21 68
- 3.0856 3 2 ack 40 ------- 1 3.1 1.0 21 68
r 3.0988 3 2 ack 40 ------- 1 3.1 1.0 21 68
+ 3.0988 2 1 ack 40 ------- 1 3.1 1.0 21 68
- 3.0988 2 1 ack 40 ------- 1 3.1 1.0 21 68
r 3.112 2 1 ack 40 ------- 1 3.1 1.0 21 68
+ 3.112 1 2 tcp 1040 ------- 1 1.0 3.1 27 69
- 3.112 1 2 tcp 1040 ------- 1 1.0 3.1 27 69
r 3.122 1 2 tcp 1040 ------- 1 1.0 3.1 26 67
+ 3.122 2 3 tcp 1040 ------- 1 1.0 3.1 26 67
- 3.1588 2 3 tcp 1040 ------- 1 1.0 3.1 22 58
r 3.1688 2 3 tcp 1040 ------- 2 0.0 3.0 6 57
+ 3.1688 3 2 ack 40 ------- 2 3.0 0.0 6 70
- 3.1688 3 2 ack 40 ------- 2 3.0 0.0 6 70
r 3.182 3 2 ack 40 ------- 2 3.0 0.0 6 70
+ 3.182 2 0 ack 40 ------- 2 3.0 0.0 6 70
- 3.182 2 0 ack 40 ------- 2 3.0 0.0 6 70
r 3.1952 2 0 ack 40 ------- 2 3.0 0.0 6 70
r 3.2052 1 2 tcp 1040 ------- 1 1.0 3.1 27 69
+ 3.2052 2 3 tcp 1040 ------- 1 1.0 3.1 27 69
- 3.242 2 3 tcp 1040 ------- 1 1.0 3.1 23 59
r 3.252 2 3 tcp 1040 ------- 1 1.0 3.1 22 58
+ 3.252 3 2 ack 40 ------- 1 3.1 1.0 22 71
- 3.252 3 2 ack 40 ------- 1 3.1 1.0 22 71
r 3.2652 3 2 ack 40 ------- 1 3.1 1.0 22 71
+ 3.2652 2 1 ack 40 ------- 1 3.1 1.0 22 71
- 3.2652 2 1 ack 40 ------- 1 3.1 1.0 22 71
r 3.2784 2 1 ack 40 ------- 1 3.1 1.0 22 71
+ 3.2784 1 2 tcp 1040 ------- 1 1.0 3.1 28 72
- 3.2784 1 2 tcp 1040 ------- 1 1.0 3.1 28 72
- 3.3252 2 3 tcp 1040 ------- 2 0.0 3.0 7 62
r 3.3352 2 3 tcp 1040 ------- 1 1.0 3.1 23 59
+ 3.3352 3 2 ack 40 ------- 1 3.1 1.0 23 73
- 3.3352 3 2 ack 40 ------- 1 3.1 1.0 23 73
r 3.3484 3 2 ack 40 ------- 1 3.1 1.0 23 73
+ 3.3484 2 1 ack 40 ------- 1 3.1 1.0 23 73
- 3.3484 2 1 ack 40 ------- 1 3.1 1.0 23 73
r 3.3616 2 1 ack 40 ------- 1 3.1 1.0 23 73
+ 3.3616 1 2 tcp 1040 ------- 1 1.0 3.1 29 74
- 3.3616 1 2 tcp 1040 ------- 1 1.0 3.1 29 74
+ 3.3616 1 2 tcp 1040 ------- 1 1.0 3.1 30 75
r 3.3716 1 2 tcp 1040 ------- 1 1.0 3.1 28 72
+ 3.3716 2 3 tcp 1040 ------- 1 1.0 3.1 28 72
- 3.4084 2 3 tcp 1040 ------- 1 1.0 3.1 24 63
r 3.4184 2 3 tcp 1040 ------- 2 0.0 3.0 7 62
+ 3.4184 3 2 ack 40 ------- 2 3.0 0.0 7 76
- 3.4184 3 2 ack 40 ------- 2 3.0 0.0 7 76
r 3.4316 3 2 ack 40 ------- 2 3.0 0.0 7 76
+ 3.4316 2 0 ack 40 ------- 2 3.0 0.0 7 76
- 3.4316 2 0 ack 40 ------- 2 3.0 0.0 7 76
- 3.4448 1 2 tcp 1040 ------- 1 1.0 3.1 30 75
r 3.4448 2 0 ack 40 ------- 2 3.0 0.0 7 76
r 3.4548 1 2 tcp 1040 ------- 1 1.0 3.1 29 74
+ 3.4548 2 3 tcp 1040 ------- 1 1.0 3.1 29 74
- 3.4916 2 3 tcp 1040 ------- 1 1.0 3.1 25 65
r 3.5016 2 3 tcp 1040 ------- 1 1.0 3.1 24 63
+ 3.5016 3 2 ack 40 ------- 1 3.1 1.0 24 77
- 3.5016 3 2 ack 40 ------- 1 3.1 1.0 24 77
r 3.5148 3 2 ack 40 ------- 1 3.1 1.0 24 77
+ 3.5148 2 1 ack 40 ------- 1 3.1 1.0 24 77
- 3.5148 2 1 ack 40 ------- 1 3.1 1.0 24 77
r 3.528 2 1 ack 40 ------- 1 3.1 1.0 24 77
+ 3.528 1 2 tcp 1040 ------- 1 1.0 3.1 31 78
- 3.528 1 2 tcp 1040 ------- 1 1.0 3.1 31 78
r 3.538 1 2 tcp 1040 ------- 1 1.0 3.1 30 75
+ 3.538 2 3 tcp 1040 ------- 1 1.0 3.1 30 75
- 3.5748 2 3 tcp 1040 ------- 1 1.0 3.1 26 67
r 3.5848 2 3 tcp 1040 ------- 1 1.0 3.1 25 65
+ 3.5848 3 2 ack 40 ------- 1 3.1 1.0 25 79
- 3.5848 3 2 ack 40 ------- 1 3.1 1.0 25 79
r 3.598 3 2 ack 40 ------- 1 3.1 1.0 25 79
+ 3.598 2 1 ack 40 ------- 1 3.1 1.0 25 79
- 3.598 2 1 ack 40 ------- 1 3.1 1.0 25 79
r 3.6112 2 1 ack 40 ------- 1 3.1 1.0 25 79
+ 3.6112 1 2 tcp 1040 ------- 1 1.0 3.1 32 80
- 3.6112 1 2 tcp 1040 ------- 1 1.0 3.1 32 80
r 3.6212 1 2 tcp 1040 ------- 1 1.0 3.1 31 78
+ 3.6212 2 3 tcp 1040 ------- 1 1.0 3.1 31 78
- 3.658 2 3 tcp 1040 ------- 1 1.0 3.1 27 69
r 3.668 2 3 tcp 1040 ------- 1 1.0 3.1 26 67
+ 3.668 3 2 ack 40 ------- 1 3.1 1.0 26 81
- 3.668 3 2 ack 40 ------- 1 3.1 1.0 26 81
r 3.6812 3 2 ack 40 ------- 1 3.1 1.0 26 81
+ 3.6812 2 1 ack 40 ------- 1 3.1 1.0 26 81
- 3.6812 2 1 ack 40 ------- 1 3.1 1.0 26 81
r 3.6944 2 1 ack 40 ------- 1 3.1 1.0 26 81
+ 3.6944 1 2 tcp 1040 ------- 1 1.0 3.1 33 82
- 3.6944 1 2 tcp 1040 ------- 1 1.0 3.1 33 82
r 3.7044 1 2 tcp 1040 ------- 1 1.0 3.1 32 80
+ 3.7044 2 3 tcp 1040 ------- 1 1.0 3.1 32 80
- 3.7412 2 3 tcp 1040 ------- 1 1.0 3.1 28 72
r 3.7512 2 3 tcp 1040 ------- 1 1.0 3.1 27 69
+ 3.7512 3 2 ack 40 ------- 1 3.1 1.0 27 83
- 3.7512 3 2 ack 40 ------- 1 3.1 1.0 27 83
+ 3.757527 0 2 tcp 1040 ------- 2 0.0 3.0 8 84
- 3.757527 0 2 tcp 1040 ------- 2 0.0 3.0 8 84
r 3.7644 3 2 ack 40 ------- 1 3.1 1.0 27 83
+ 3.7644 2 1 ack 40 ------- 1 3.1 1.0 27 83
- 3.7644 2 1 ack 40 ------- 1 3.1 1.0 27 83
r 3.7776 2 1 ack 40 ------- 1 3.1 1.0 27 83
+ 3.7776 1 2 tcp 1040 ------- 1 1.0 3.1 34 85
- 3.7776 1 2 tcp 1040 ------- 1 1.0 3.1 34 85
r 3.7876 1 2 tcp 1040 ------- 1 1.0 3.1 33 82
+ 3.7876 2 3 tcp 1040 ------- 1 1.0 3.1 33 82
- 3.8244 2 3 tcp 1040 ------- 1 1.0 3.1 29 74
r 3.8344 2 3 tcp 1040 ------- 1 1.0 3.1 28 72
+ 3.8344 3 2 ack 40 ------- 1 3.1 1.0 28 86
- 3.8344 3 2 ack 40 ------- 1 3.1 1.0 28 86
r 3.8476 3 2 ack 40 ------- 1 3.1 1.0 28 86
+ 3.8476 2 1 ack 40 ------- 1 3.1 1.0 28 86
- 3.8476 2 1 ack 40 ------- 1 3.1 1.0 28 86
r 3.850727 0 2 tcp 1040 ------- 2 0.0 3.0 8 84
+ 3.850727 2 3 tcp 1040 ------- 2 0.0 3.0 8 84
+ 3.856644 0 2 tcp 1040 ------- 2 0.0 3.0 9 87
- 3.856644 0 2 tcp 1040 ------- 2 0.0 3.0 9 87
r 3.8608 2 1 ack 40 ------- 1 3.1 1.0 28 86
+ 3.8608 1 2 tcp 1040 ------- 1 1.0 3.1 35 88
- 3.8608 1 2 tcp 1040 ------- 1 1.0 3.1 35 88
+ 3.865521 0 2 tcp 1040 ------- 2 0.0 3.0 10 89
r 3.8708 1 2 tcp 1040 ------- 1 1.0 3.1 34 85
+ 3.8708 2 3 tcp 1040 ------- 1 1.0 3.1 34 85
- 3.9076 2 3 tcp 1040 ------- 1 1.0 3.1 30 75
r 3.9176 2 3 tcp 1040 ------- 1 1.0 3.1 29 74
+ 3.9176 3 2 ack 40 ------- 1 3.1 1.0 29 90
- 3.9176 3 2 ack 40 ------- 1 3.1 1.0 29 90
r 3.9308 3 2 ack 40 ------- 1 3.1 1.0 29 90
+ 3.9308 2 1 ack 40 ------- 1 3.1 1.0 29 90
- 3.9308 2 1 ack 40 ------- 1 3.1 1.0 29 90
- 3.939844 0 2 tcp 1040 ------- 2 0.0 3.0 10 89
r 3.944 2 1 ack 40 ------- 1 3.1 1.0 29 90
+ 3.944 1 2 tcp 1040 ------- 1 1.0 3.1 36 91
- 3.944 1 2 tcp 1040 ------- 1 1.0 3.1 36 91
r 3.949844 0 2 tcp 1040 ------- 2 0.0 3.0 9 87
+ 3.949844 2 3 tcp 1040 ------- 2 0.0 3.0 9 87
r 3.954 1 2 tcp 1040 ------- 1 1.0 3.1 35 88
+ 3.954 2 3 tcp 1040 ------- 1 1.0 3.1 35 88
- 3.9908 2 3 tcp 1040 ------- 1 1.0 3.1 31 78
r 4.0008 2 3 tcp 1040 ------- 1 1.0 3.1 30 75
+ 4.0008 3 2 ack 40 ------- 1 3.1 1.0 30 92
- 4.0008 3 2 ack 40 ------- 1 3.1 1.0 30 92
r 4.014 3 2 ack 40 ------- 1 3.1 1.0 30 92
+ 4.014 2 1 ack 40 ------- 1 3.1 1.0 30 92
- 4.014 2 1 ack 40 ------- 1 3.1 1.0 30 92
r 4.0272 2 1 ack 40 ------- 1 3.1 1.0 30 92
+ 4.0272 1 2 tcp 1040 ------- 1 1.0 3.1 37 93
- 4.0272 1 2 tcp 1040 ------- 1 1.0 3.1 37 93
r 4.033044 0 2 tcp 1040 ------- 2 0.0 3.0 10 89
+ 4.033044 2 3 tcp 1040 ------- 2 0.0 3.0 10 89
r 4.0372 1 2 tcp 1040 ------- 1 1.0 3.1 36 91
+ 4.0372 2 3 tcp 1040 ------- 1 1.0 3.1 36 91
- 4.074 2 3 tcp 1040 ------- 1 1.0 3.1 32 80
r 4.084 2 3 tcp 1040 ------- 1 1.0 3.1 31 78
+ 4.084 3 2 ack 40 ------- 1 3.1 1.0 31 94
- 4.084 3 2 ack 40 ------- 1 3.1 1.0 31 94
r 4.0972 3 2 ack 40 ------- 1 3.1 1.0 31 94
+ 4.0972 2 1 ack 40 ------- 1 3.1 1.0 31 94
- 4.0972 2 1 ack 40 ------- 1 3.1 1.0 31 94
r 4.1104 2 1 ack 40 ------- 1 3.1 1.0 31 94
+ 4.1104 1 2 tcp 1040 ------- 1 1.0 3.1 38 95
- 4.1104 1 2 tcp 1040 ------- 1 1.0 3.1 38 95
+ 4.1104 1 2 tcp 1040 ------- 1 1.0 3.1 39 96
r 4.1204 1 2 tcp 1040 ------- 1 1.0 3.1 37 93
+ 4.1204 2 3 tcp 1040 ------- 1 1.0 3.1 37 93
- 4.1572 2 3 tcp 1040 ------- 1 1.0 3.1 33 82
r 4.1672 2 3 tcp 1040 ------- 1 1.0 3.1 32 80
+ 4.1672 3 2 ack 40 ------- 1 3.1 1.0 32 97
- 4.1672 3 2 ack 40 ------- 1 3.1 1.0 32 97
r 4.1804 3 2 ack 40 ------- 1 3.1 1.0 32 97
+ 4.1804 2 1 ack 40 ------- 1 3.1 1.0 32 97
- 4.1804 2 1 ack 40 ------- 1 3.1 1.0 32 97
- 4.1936 1 2 tcp 1040 ------- 1 1.0 3.1 39 96
r 4.1936 2 1 ack 40 ------- 1 3.1 1.0 32 97
+ 4.1936 1 2 tcp 1040 ------- 1 1.0 3.1 40 98
r 4.2036 1 2 tcp 1040 ------- 1 1.0 3.1 38 95
+ 4.2036 2 3 tcp 1040 ------- 1 1.0 3.1 38 95
- 4.2404 2 3 tcp 1040 ------- 2 0.0 3.0 8 84
r 4.2504 2 3 tcp 1040 ------- 1 1.0 3.1 33 82
+ 4.2504 3 2 ack 40 ------- 1 3.1 1.0 33 99
- 4.2504 3 2 ack 40 ------- 1 3.1 1.0 33 99
r 4.2636 3 2 ack 40 ------- 1 3.1 1.0 33 99
+ 4.2636 2 1 ack 40 ------- 1 3.1 1.0 33 99
- 4.2636 2 1 ack 40 ------- 1 3.1 1.0 33 99
- 4.2768 1 2 tcp 1040 ------- 1 1.0 3.1 40 98
r 4.2768 2 1 ack 40 ------- 1 3.1 1.0 33 99
+ 4.2768 1 2 tcp 1040 ------- 1 1.0 3.1 41 100
r 4.2868 1 2 tcp 1040 ------- 1 1.0 3.1 39 96
+ 4.2868 2 3 tcp 1040 ------- 1 1.0 3.1 39 96
- 4.3236 2 3 tcp 1040 ------- 1 1.0 3.1 34 85
r 4.3336 2 3 tcp 1040 ------- 2 0.0 3.0 8 84
+ 4.3336 3 2 ack 40 ------- 2 3.0 0.0 8 101
- 4.3336 3 2 ack 40 ------- 2 3.0 0.0 8 101
r 4.3468 3 2 ack 40 ------- 2 3.0 0.0 8 101
+ 4.3468 2 0 ack 40 ------- 2 3.0 0.0 8 101
- 4.3468 2 0 ack 40 ------- 2 3.0 0.0 8 101
- 4.36 1 2 tcp 1040 ------- 1 1.0 3.1 41 100
r 4.36 2 0 ack 40 ------- 2 3.0 0.0 8 101
+ 4.36 0 2 tcp 1040 ------- 2 0.0 3.0 11 102
- 4.36 0 2 tcp 1040 ------- 2 0.0 3.0 11 102
+ 4.36 0 2 tcp 1040 ------- 2 0.0 3.0 12 103
r 4.37 1 2 tcp 1040 ------- 1 1.0 3.1 40 98
+ 4.37 2 3 tcp 1040 ------- 1 1.0 3.1 40 98
- 4.4068 2 3 tcp 1040 ------- 2 0.0 3.0 9 87
r 4.4168 2 3 tcp 1040 ------- 1 1.0 3.1 34 85
+ 4.4168 3 2 ack 40 ------- 1 3.1 1.0 34 104
- 4.4168 3 2 ack 40 ------- 1 3.1 1.0 34 104
r 4.43 3 2 ack 40 ------- 1 3.1 1.0 34 104
+ 4.43 2 1 ack 40 ------- 1 3.1 1.0 34 104
- 4.43 2 1 ack 40 ------- 1 3.1 1.0 34 104
- 4.4432 0 2 tcp 1040 ------- 2 0.0 3.0 12 103
r 4.4432 2 1 ack 40 ------- 1 3.1 1.0 34 104
+ 4.4432 1 2 tcp 1040 ------- 1 1.0 3.1 42 105
- 4.4432 1 2 tcp 1040 ------- 1 1.0 3.1 42 105
r 4.4532 1 2 tcp 1040 ------- 1 1.0 3.1 41 100
+ 4.4532 2 3 tcp 1040 ------- 1 1.0 3.1 41 100
r 4.4532 0 2 tcp 1040 ------- 2 0.0 3.0 11 102
+ 4.4532 2 3 tcp 1040 ------- 2 0.0 3.0 11 102
- 4.49 2 3 tcp 1040 ------- 1 1.0 3.1 35 88
r 4.5 2 3 tcp 1040 ------- 2 0.0 3.0 9 87
+ 4.5 3 2 ack 40 ------- 2 3.0 0.0 9 106
- 4.5 3 2 ack 40 ------- 2 3.0 0.0 9 106
r 4.5132 3 2 ack 40 ------- 2 3.0 0.0 9 106
+ 4.5132 2 0 ack 40 ------- 2 3.0 0.0 9 106
- 4.5132 2 0 ack 40 ------- 2 3.0 0.0 9 106
r 4.5264 2 0 ack 40 ------- 2 3.0 0.0 9 106
r 4.5364 0 2 tcp 1040 ------- 2 0.0 3.0 12 103
+ 4.5364 2 3 tcp 1040 ------- 2 0.0 3.0 12 103
r 4.5364 1 2 tcp 1040 ------- 1 1.0 3.1 42 105
+ 4.5364 2 3 tcp 1040 ------- 1 1.0 3.1 42 105
d 4.5364 2 3 tcp 1040 ------- 1 1.0 3.1 42 105
- 4.5732 2 3 tcp 1040 ------- 2 0.0 3.0 10 89
r 4.5832 2 3 tcp 1040 ------- 1 1.0 3.1 35 88
+ 4.5832 3 2 ack 40 ------- 1 3.1 1.0 35 107
- 4.5832 3 2 ack 40 ------- 1 3.1 1.0 35 107
r 4.5964 3 2 ack 40 ------- 1 3.1 1.0 35 107
+ 4.5964 2 1 ack 40 ------- 1 3.1 1.0 35 107
- 4.5964 2 1 ack 40 ------- 1 3.1 1.0 35 107
r 4.6096 2 1 ack 40 ------- 1 3.1 1.0 35 107
+ 4.6096 1 2 tcp 1040 ------- 1 1.0 3.1 43 108
- 4.6096 1 2 tcp 1040 ------- 1 1.0 3.1 43 108
- 4.6564 2 3 tcp 1040 ------- 1 1.0 3.1 36 91
r 4.6664 2 3 tcp 1040 ------- 2 0.0 3.0 10 89
+ 4.6664 3 2 ack 40 ------- 2 3.0 0.0 10 109
- 4.6664 3 2 ack 40 ------- 2 3.0 0.0 10 109
r 4.6796 3 2 ack 40 ------- 2 3.0 0.0 10 109
+ 4.6796 2 0 ack 40 ------- 2 3.0 0.0 10 109
- 4.6796 2 0 ack 40 ------- 2 3.0 0.0 10 109
r 4.6928 2 0 ack 40 ------- 2 3.0 0.0 10 109
r 4.7028 1 2 tcp 1040 ------- 1 1.0 3.1 43 108
+ 4.7028 2 3 tcp 1040 ------- 1 1.0 3.1 43 108
- 4.7396 2 3 tcp 1040 ------- 1 1.0 3.1 37 93
r 4.7496 2 3 tcp 1040 ------- 1 1.0 3.1 36 91
+ 4.7496 3 2 ack 40 ------- 1 3.1 1.0 36 110
- 4.7496 3 2 ack 40 ------- 1 3.1 1.0 36 110
r 4.7628 3 2 ack 40 ------- 1 3.1 1.0 36 110
+ 4.7628 2 1 ack 40 ------- 1 3.1 1.0 36 110
- 4.7628 2 1 ack 40 ------- 1 3.1 1.0 36 110
r 4.776 2 1 ack 40 ------- 1 3.1 1.0 36 110
+ 4.776 1 2 tcp 1040 ------- 1 1.0 3.1 44 111
- 4.776 1 2 tcp 1040 ------- 1 1.0 3.1 44 111
- 4.8228 2 3 tcp 1040 ------- 1 1.0 3.1 38 95
r 4.8328 2 3 tcp 1040 ------- 1 1.0 3.1 37 93
+ 4.8328 3 2 ack 40 ------- 1 3.1 1.0 37 112
- 4.8328 3 2 ack 40 ------- 1 3.1 1.0 37 112
r 4.846 3 2 ack 40 ------- 1 3.1 1.0 37 112
+ 4.846 2 1 ack 40 ------- 1 3.1 1.0 37 112
- 4.846 2 1 ack 40 ------- 1 3.1 1.0 37 112
r 4.8592 2 1 ack 40 ------- 1 3.1 1.0 37 112
+ 4.8592 1 2 tcp 1040 ------- 1 1.0 3.1 45 113
- 4.8592 1 2 tcp 1040 ------- 1 1.0 3.1 45 113
r 4.8692 1 2 tcp 1040 ------- 1 1.0 3.1 44 111
+ 4.8692 2 3 tcp 1040 ------- 1 1.0 3.1 44 111
- 4.906 2 3 tcp 1040 ------- 1 1.0 3.1 39 96
r 4.916 2 3 tcp 1040 ------- 1 1.0 3.1 38 95
+ 4.916 3 2 ack 40 ------- 1 3.1 1.0 38 114
- 4.916 3 2 ack 40 ------- 1 3.1 1.0 38 114
r 4.9292 3 2 ack 40 ------- 1 3.1 1.0 38 114
+ 4.9292 2 1 ack 40 ------- 1 3.1 1.0 38 114
- 4.9292 2 1 ack 40 ------- 1 3.1 1.0 38 114
r 4.9424 2 1 ack 40 ------- 1 3.1 1.0 38 114
+ 4.9424 1 2 tcp 1040 ------- 1 1.0 3.1 46 115