V -t * -v 1.0a5 -a 0
A -t * -n 1 -p 0 -o 0x7fffffff -c 30 -a 1
A -t * -h 1 -m 1073741823 -s 0
c -t * -i 1 -n blue
c -t * -i 2 -n red
n -t * -a 0 -s 0 -S UP -v circle -c black -i black
n -t * -a 1 -s 1 -S UP -v circle -c black -i black
n -t * -a 2 -s 2 -S UP -v circle -c black -i black
n -t * -a 3 -s 3 -S UP -v circle -c black -i black
l -t * -s 0 -d 2 -S UP -r 100000 -D 0.01 -c black -o down
l -t * -s 2 -d 1 -S UP -r 100000 -D 0.01 -c black -o right-down
l -t * -s 2 -d 3 -S UP -r 100000 -D 0.01 -c black -o left-down
+ -t 0.507790344 -s 0 -d 2 -p tcp -e 40 -c 2 -i 0 -a 2 -x {0.0 3.0 0 ------- null}
- -t 0.507790344 -s 0 -d 2 -p tcp -e 40 -c 2 -i 0 -a 2 -x {0.0 3.0 0 ------- null}
h -t 0.507790344 -s 0 -d 2 -p tcp -e 40 -c 2 -i 0 -a 2 -x {0.0 3.0 -1 ------- null}
r -t 0.520990344 -s 0 -d 2 -p tcp -e 40 -c 2 -i 0 -a 2 -x {0.0 3.0 0 ------- null}
+ -t 0.520990344 -s 2 -d 3 -p tcp -e 40 -c 2 -i 0 -a 2 -x {0.0 3.0 0 ------- null}
- -t 0.520990344 -s 2 -d 3 -p tcp -e 40 -c 2 -i 0 -a 2 -x {0.0 3.0 0 ------- null}
h -t 0.520990344 -s 2 -d 3 -p tcp -e 40 -c 2 -i 0 -a 2 -x {0.0 3.0 -1 ------- null}
r -t 0.534190344 -s 2 -d 3 -p tcp -e 40 -c 2 -i 0 -a 2 -x {0.0 3.0 0 ------- null}
+ -t 0.534190344 -s 3 -d 2 -p ack -e 40 -c 2 -i 1 -a 2 -x {3.0 0.0 0 ------- null}
- -t 0.534190344 -s 3 -d 2 -p ack -e 40 -c 2 -i 1 -a 2 -x {3.0 0.0 0 ------- null}
h -t 0.534190344 -s 3 -d 2 -p ack -e 40 -c 2 -i 1 -a 2 -x {3.0 0.0 -1 ------- null}
r -t 0.547390344 -s 3 -d 2 -p ack -e 40 -c 2 -i 1 -a 2 -x {3.0 0.0 0 ------- null}
+ -t 0.547390344 -s 2 -d 0 -p ack -e 40 -c 2 -i 1 -a 2 -x {3.0 0.0 0 ------- null}
- -t 0.547390344 -s 2 -d 0 -p ack -e 40 -c 2 -i 1 -a 2 -x {3.0 0.0 0 ------- null}
h -t 0.547390344 -s 2 -d 0 -p ack -e 40 -c 2 -i 1 -a 2 -x {3.0 0.0 -1 ------- null}
r -t 0.560590344 -s 2 -d 0 -p ack -e 40 -c 2 -i 1 -a 2 -x {3.0 0.0 0 ------- null}
+ -t 0.560590344 -s 0 -d 2 -p tcp -e 1040 -c 2 -i 2 -a 2 -x {0.0 3.0 1 ------- null}
- -t 0.560590344 -s 0 -d 2 -p tcp -e 1040 -c 2 -i 2 -a 2 -x {0.0 3.0 1 ------- null}
h -t 0.560590344 -s 0 -d 2 -p tcp -e 1040 -c 2 -i 2 -a 2 -x {0.0 3.0 -1 ------- null}
+ -t 0.6 -s 1 -d 2 -p tcp -e 40 -c 1 -i 3 -a 1 -x {1.0 3.1 0 ------- null}
- -t 0.6 -s 1 -d 2 -p tcp -e 40 -c 1 -i 3 -a 1 -x {1.0 3.1 0 ------- null}
h -t 0.6 -s 1 -d 2 -p tcp -e 40 -c 1 -i 3 -a 1 -x {1.0 3.1 -1 ------- null}
r -t 0.6132 -s 1 -d 2 -p tcp -e 40 -c 1 -i 3 -a 1 -x {1.0 3.1 0 ------- null}
+ -t 0.6132 -s 2 -d 3 -p tcp -e 40 -c 1 -i 3 -a 1 -x {1.0 3.1 0 ------- null}
- -t 0.6132 -s 2 -d 3 -p tcp -e 40 -c 1 -i 3 -a 1 -x {1.0 3.1 0 ------- null}
h -t 0.6132 -s 2 -d 3 -p tcp -e 40 -c 1 -i 3 -a 1 -x {1.0 3.1 -1 ------- null}
r -t 0.6264 -s 2 -d 3 -p tcp -e 40 -c 1 -i 3 -a 1 -x {1.0 3.1 0 ------- null}
+ -t 0.6264 -s 3 -d 2 -p ack -e 40 -c 1 -i 4 -a 1 -x {3.1 1.0 0 ------- null}
- -t 0.6264 -s 3 -d 2 -p ack -e 40 -c 1 -i 4 -a 1 -x {3.1 1.0 0 ------- null}
h -t 0.6264 -s 3 -d 2 -p ack -e 40 -c 1 -i 4 -a 1 -x {3.1 1.0 -1 ------- null}
r -t 0.6396 -s 3 -d 2 -p ack -e 40 -c 1 -i 4 -a 1 -x {3.1 1.0 0 ------- null}
+ -t 0.6396 -s 2 -d 1 -p ack -e 40 -c 1 -i 4 -a 1 -x {3.1 1.0 0 ------- null}
- -t 0.6396 -s 2 -d 1 -p ack -e 40 -c 1 -i 4 -a 1 -x {3.1 1.0 0 ------- null}
h -t 0.6396 -s 2 -d 1 -p ack -e 40 -c 1 -i 4 -a 1 -x {3.1 1.0 -1 ------- null}
r -t 0.6528 -s 2 -d 1 -p ack -e 40 -c 1 -i 4 -a 1 -x {3.1 1.0 0 ------- null}
+ -t 0.6528 -s 1 -d 2 -p tcp -e 1040 -c 1 -i 5 -a 1 -x {1.0 3.1 1 ------- null}
- -t 0.6528 -s 1 -d 2 -p tcp -e 1040 -c 1 -i 5 -a 1 -x {1.0 3.1 1 ------- null}
h -t 0.6528 -s 1 -d 2 -p tcp -e 1040 -c 1 -i 5 -a 1 -x {1.0 3.1 -1 ------- null}
+ -t 0.6528 -s 1 -d 2 -p tcp -e 1040 -c 1 -i 6 -a 1 -x {1.0 3.1 2 ------- null}
r -t 0.653790344 -s 0 -d 2 -p tcp -e 1040 -c 2 -i 2 -a 2 -x {0.0 3.0 1 ------- null}
+ -t 0.653790344 -s 2 -d 3 -p tcp -e 1040 -c 2 -i 2 -a 2 -x {0.0 3.0 1 ------- null}
- -t 0.653790344 -s 2 -d 3 -p tcp -e 1040 -c 2 -i 2 -a 2 -x {0.0 3.0 1 ------- null}
h -t 0.653790344 -s 2 -d 3 -p tcp -e 1040 -c 2 -i 2 -a 2 -x {0.0 3.0 -1 ------- null}
- -t 0.736 -s 1 -d 2 -p tcp -e 1040 -c 1 -i 6 -a 1 -x {1.0 3.1 2 ------- null}
h -t 0.736 -s 1 -d 2 -p tcp -e 1040 -c 1 -i 6 -a 1 -x {1.0 3.1 -1 ------- null}
r -t 0.746 -s 1 -d 2 -p tcp -e 1040 -c 1 -i 5 -a 1 -x {1.0 3.1 1 ------- null}
+ -t 0.746 -s 2 -d 3 -p tcp -e 1040 -c 1 -i 5 -a 1 -x {1.0 3.1 1 ------- null}
- -t 0.746 -s 2 -d 3 -p tcp -e 1040 -c 1 -i 5 -a 1 -x {1.0 3.1 1 ------- null}
h -t 0.746 -s 2 -d 3 -p tcp -e 1040 -c 1 -i 5 -a 1 -x {1.0 3.1 -1 ------- null}
r -t 0.746990344 -s 2 -d 3 -p tcp -e 1040 -c 2 -i 2 -a 2 -x {0.0 3.0 1 ------- null}
+ -t 0.746990344 -s 3 -d 2 -p ack -e 40 -c 2 -i 7 -a 2 -x {3.0 0.0 1 ------- null}
- -t 0.746990344 -s 3 -d 2 -p ack -e 40 -c 2 -i 7 -a 2 -x {3.0 0.0 1 ------- null}
h -t 0.746990344 -s 3 -d 2 -p ack -e 40 -c 2 -i 7 -a 2 -x {3.0 0.0 -1 ------- null}
r -t 0.760190344 -s 3 -d 2 -p ack -e 40 -c 2 -i 7 -a 2 -x {3.0 0.0 1 ------- null}
+ -t 0.760190344 -s 2 -d 0 -p ack -e 40 -c 2 -i 7 -a 2 -x {3.0 0.0 1 ------- null}
- -t 0.760190344 -s 2 -d 0 -p ack -e 40 -c 2 -i 7 -a 2 -x {3.0 0.0 1 ------- null}
h -t 0.760190344 -s 2 -d 0 -p ack -e 40 -c 2 -i 7 -a 2 -x {3.0 0.0 -1 ------- null}
+ -t 0.760590344 -s 0 -d 2 -p tcp -e 1040 -c 2 -i 8 -a 2 -x {0.0 3.0 1 ---A--- null}
- -t 0.760590344 -s 0 -d 2 -p tcp -e 1040 -c 2 -i 8 -a 2 -x {0.0 3.0 1 ---A--- null}
h -t 0.760590344 -s 0 -d 2 -p tcp -e 1040 -c 2 -i 8 -a 2 -x {0.0 3.0 -1 ---A--- null}
r -t 0.773390344 -s 2 -d 0 -p ack -e 40 -c 2 -i 7 -a 2 -x {3.0 0.0 1 ------- null}
r -t 0.8292 -s 1 -d 2 -p tcp -e 1040 -c 1 -i 6 -a 1 -x {1.0 3.1 2 ------- null}
+ -t 0.8292 -s 2 -d 3 -p tcp -e 1040 -c 1 -i 6 -a 1 -x {1.0 3.1 2 ------- null}
- -t 0.8292 -s 2 -d 3 -p tcp -e 1040 -c 1 -i 6 -a 1 -x {1.0 3.1 2 ------- null}
h -t 0.8292 -s 2 -d 3 -p tcp -e 1040 -c 1 -i 6 -a 1 -x {1.0 3.1 -1 ------- null}
r -t 0.8392 -s 2 -d 3 -p tcp -e 1040 -c 1 -i 5 -a 1 -x {1.0 3.1 1 ------- null}
+ -t 0.8392 -s 3 -d 2 -p ack -e 40 -c 1 -i 9 -a 1 -x {3.1 1.0 1 ------- null}
- -t 0.8392 -s 3 -d 2 -p ack -e 40 -c 1 -i 9 -a 1 -x {3.1 1.0 1 ------- null}
h -t 0.8392 -s 3 -d 2 -p ack -e 40 -c 1 -i 9 -a 1 -x {3.1 1.0 -1 ------- null}
r -t 0.8524 -s 3 -d 2 -p ack -e 40 -c 1 -i 9 -a 1 -x {3.1 1.0 1 ------- null}
+ -t 0.8524 -s 2 -d 1 -p ack -e 40 -c 1 -i 9 -a 1 -x {3.1 1.0 1 ------- null}
- -t 0.8524 -s 2 -d 1 -p ack -e 40 -c 1 -i 9 -a 1 -x {3.1 1.0 1 ------- null}
h -t 0.8524 -s 2 -d 1 -p ack -e 40 -c 1 -i 9 -a 1 -x {3.1 1.0 -1 ------- null}
+ -t 0.8528 -s 1 -d 2 -p tcp -e 1040 -c 1 -i 10 -a 1 -x {1.0 3.1 1 ---A--- null}
- -t 0.8528 -s 1 -d 2 -p tcp -e 1040 -c 1 -i 10 -a 1 -x {1.0 3.1 1 ---A--- null}
h -t 0.8528 -s 1 -d 2 -p tcp -e 1040 -c 1 -i 10 -a 1 -x {1.0 3.1 -1 ---A--- null}
r -t 0.853790344 -s 0 -d 2 -p tcp -e 1040 -c 2 -i 8 -a 2 -x {0.0 3.0 1 ---A--- null}
+ -t 0.853790344 -s 2 -d 3 -p tcp -e 1040 -c 2 -i 8 -a 2 -x {0.0 3.0 1 ---A--- null}
r -t 0.8656 -s 2 -d 1 -p ack -e 40 -c 1 -i 9 -a 1 -x {3.1 1.0 1 ------- null}
+ -t 0.8656 -s 1 -d 2 -p tcp -e 1040 -c 1 -i 11 -a 1 -x {1.0 3.1 2 ------- null}
+ -t 0.8656 -s 1 -d 2 -p tcp -e 1040 -c 1 -i 12 -a 1 -x {1.0 3.1 3 ------- null}
- -t 0.9124 -s 2 -d 3 -p tcp -e 1040 -c 2 -i 8 -a 2 -x {0.0 3.0 1 ---A--- null}
h -t 0.9124 -s 2 -d 3 -p tcp -e 1040 -c 2 -i 8 -a 2 -x {0.0 3.0 -1 ---A--- null}
r -t 0.9224 -s 2 -d 3 -p tcp -e 1040 -c 1 -i 6 -a 1 -x {1.0 3.1 2 ------- null}
+ -t 0.9224 -s 3 -d 2 -p ack -e 40 -c 1 -i 13 -a 1 -x {3.1 1.0 2 ------- null}
- -t 0.9224 -s 3 -d 2 -p ack -e 40 -c 1 -i 13 -a 1 -x {3.1 1.0 2 ------- null}
h -t 0.9224 -s 3 -d 2 -p ack -e 40 -c 1 -i 13 -a 1 -x {3.1 1.0 -1 ------- null}
r -t 0.9356 -s 3 -d 2 -p ack -e 40 -c 1 -i 13 -a 1 -x {3.1 1.0 2 ------- null}
+ -t 0.9356 -s 2 -d 1 -p ack -e 40 -c 1 -i 13 -a 1 -x {3.1 1.0 2 ------- null}
- -t 0.9356 -s 2 -d 1 -p ack -e 40 -c 1 -i 13 -a 1 -x {3.1 1.0 2 ------- null}
h -t 0.9356 -s 2 -d 1 -p ack -e 40 -c 1 -i 13 -a 1 -x {3.1 1.0 -1 ------- null}
- -t 0.936 -s 1 -d 2 -p tcp -e 1040 -c 1 -i 11 -a 1 -x {1.0 3.1 2 ------- null}
h -t 0.936 -s 1 -d 2 -p tcp -e 1040 -c 1 -i 11 -a 1 -x {1.0 3.1 -1 ------- null}
r -t 0.946 -s 1 -d 2 -p tcp -e 1040 -c 1 -i 10 -a 1 -x {1.0 3.1 1 ---A--- null}
+ -t 0.946 -s 2 -d 3 -p tcp -e 1040 -c 1 -i 10 -a 1 -x {1.0 3.1 1 ---A--- null}
r -t 0.9488 -s 2 -d 1 -p ack -e 40 -c 1 -i 13 -a 1 -x {3.1 1.0 2 ------- null}
+ -t 0.9488 -s 1 -d 2 -p tcp -e 1040 -c 1 -i 14 -a 1 -x {1.0 3.1 4 ------- null}
- -t 0.9956 -s 2 -d 3 -p tcp -e 1040 -c 1 -i 10 -a 1 -x {1.0 3.1 1 ---A--- null}
h -t 0.9956 -s 2 -d 3 -p tcp -e 1040 -c 1 -i 10 -a 1 -x {1.0 3.1 -1 ---A--- null}
r -t 1.0056 -s 2 -d 3 -p tcp -e 1040 -c 2 -i 8 -a 2 -x {0.0 3.0 1 ---A--- null}
+ -t 1.0056 -s 3 -d 2 -p ack -e 40 -c 2 -i 15 -a 2 -x {3.0 0.0 1 ------- null}
- -t 1.0056 -s 3 -d 2 -p ack -e 40 -c 2 -i 15 -a 2 -x {3.0 0.0 1 ------- null}
h -t 1.0056 -s 3 -d 2 -p ack -e 40 -c 2 -i 15 -a 2 -x {3.0 0.0 -1 ------- null}
r -t 1.0188 -s 3 -d 2 -p ack -e 40 -c 2 -i 15 -a 2 -x {3.0 0.0 1 ------- null}
+ -t 1.0188 -s 2 -d 0 -p ack -e 40 -c 2 -i 15 -a 2 -x {3.0 0.0 1 ------- null}
- -t 1.0188 -s 2 -d 0 -p ack -e 40 -c 2 -i 15 -a 2 -x {3.0 0.0 1 ------- null}
h -t 1.0188 -s 2 -d 0 -p ack -e 40 -c 2 -i 15 -a 2 -x {3.0 0.0 -1 ------- null}
- -t 1.0192 -s 1 -d 2 -p tcp -e 1040 -c 1 -i 12 -a 1 -x {1.0 3.1 3 ------- null}
h -t 1.0192 -s 1 -d 2 -p tcp -e 1040 -c 1 -i 12 -a 1 -x {1.0 3.1 -1 ------- null}
r -t 1.0292 -s 1 -d 2 -p tcp -e 1040 -c 1 -i 11 -a 1 -x {1.0 3.1 2 ------- null}
+ -t 1.0292 -s 2 -d 3 -p tcp -e 1040 -c 1 -i 11 -a 1 -x {1.0 3.1 2 ------- null}
r -t 1.032 -s 2 -d 0 -p ack -e 40 -c 2 -i 15 -a 2 -x {3.0 0.0 1 ------- null}
- -t 1.0788 -s 2 -d 3 -p tcp -e 1040 -c 1 -i 11 -a 1 -x {1.0 3.1 2 ------- null}
h -t 1.0788 -s 2 -d 3 -p tcp -e 1040 -c 1 -i 11 -a 1 -x {1.0 3.1 -1 ------- null}
r -t 1.0888 -s 2 -d 3 -p tcp -e 1040 -c 1 -i 10 -a 1 -x {1.0 3.1 1 ---A--- null}
+ -t 1.0888 -s 3 -d 2 -p ack -e 40 -c 1 -i 16 -a 1 -x {3.1 1.0 2 ------- null}
- -t 1.0888 -s 3 -d 2 -p ack -e 40 -c 1 -i 16 -a 1 -x {3.1 1.0 2 ------- null}
h -t 1.0888 -s 3 -d 2 -p ack -e 40 -c 1 -i 16 -a 1 -x {3.1 1.0 -1 ------- null}
r -t 1.102 -s 3 -d 2 -p ack -e 40 -c 1 -i 16 -a 1 -x {3.1 1.0 2 ------- null}
+ -t 1.102 -s 2 -d 1 -p ack -e 40 -c 1 -i 16 -a 1 -x {3.1 1.0 2 ------- null}
- -t 1.102 -s 2 -d 1 -p ack -e 40 -c 1 -i 16 -a 1 -x {3.1 1.0 2 ------- null}
h -t 1.102 -s 2 -d 1 -p ack -e 40 -c 1 -i 16 -a 1 -x {3.1 1.0 -1 ------- null}
- -t 1.1024 -s 1 -d 2 -p tcp -e 1040 -c 1 -i 14 -a 1 -x {1.0 3.1 4 ------- null}
h -t 1.1024 -s 1 -d 2 -p tcp -e 1040 -c 1 -i 14 -a 1 -x {1.0 3.1 -1 ------- null}
r -t 1.1124 -s 1 -d 2 -p tcp -e 1040 -c 1 -i 12 -a 1 -x {1.0 3.1 3 ------- null}
+ -t 1.1124 -s 2 -d 3 -p tcp -e 1040 -c 1 -i 12 -a 1 -x {1.0 3.1 3 ------- null}
r -t 1.1152 -s 2 -d 1 -p ack -e 40 -c 1 -i 16 -a 1 -x {3.1 1.0 2 ------- null}
+ -t 1.1152 -s 1 -d 2 -p tcp -e 1040 -c 1 -i 17 -a 1 -x {1.0 3.1 5 ------- null}
- -t 1.162 -s 2 -d 3 -p tcp -e 1040 -c 1 -i 12 -a 1 -x {1.0 3.1 3 ------- null}
h -t 1.162 -s 2 -d 3 -p tcp -e 1040 -c 1 -i 12 -a 1 -x {1.0 3.1 -1 ------- null}
r -t 1.172 -s 2 -d 3 -p tcp -e 1040 -c 1 -i 11 -a 1 -x {1.0 3.1 2 ------- null}
+ -t 1.172 -s 3 -d 2 -p ack -e 40 -c 1 -i 18 -a 1 -x {3.1 1.0 2 ------- null}
- -t 1.172 -s 3 -d 2 -p ack -e 40 -c 1 -i 18 -a 1 -x {3.1 1.0 2 ------- null}
h -t 1.172 -s 3 -d 2 -p ack -e 40 -c 1 -i 18 -a 1 -x {3.1 1.0 -1 ------- null}
r -t 1.1852 -s 3 -d 2 -p ack -e 40 -c 1 -i 18 -a 1 -x {3.1 1.0 2 ------- null}
+ -t 1.1852 -s 2 -d 1 -p ack -e 40 -c 1 -i 18 -a 1 -x {3.1 1.0 2 ------- null}
- -t 1.1852 -s 2 -d 1 -p ack -e 40 -c 1 -i 18 -a 1 -x {3.1 1.0 2 ------- null}
h -t 1.1852 -s 2 -d 1 -p ack -e 40 -c 1 -i 18 -a 1 -x {3.1 1.0 -1 ------- null}
- -t 1.1856 -s 1 -d 2 -p tcp -e 1040 -c 1 -i 17 -a 1 -x {1.0 3.1 5 ------- null}
h -t 1.1856 -s 1 -d 2 -p tcp -e 1040 -c 1 -i 17 -a 1 -x {1.0 3.1 -1 ------- null}
r -t 1.1956 -s 1 -d 2 -p tcp -e 1040 -c 1 -i 14 -a 1 -x {1.0 3.1 4 ------- null}
+ -t 1.1956 -s 2 -d 3 -p tcp -e 1040 -c 1 -i 14 -a 1 -x {1.0 3.1 4 ------- null}
r -t 1.1984 -s 2 -d 1 -p ack -e 40 -c 1 -i 18 -a 1 -x {3.1 1.0 2 ------- null}
+ -t 1.1984 -s 1 -d 2 -p tcp -e 1040 -c 1 -i 19 -a 1 -x {1.0 3.1 6 ------- null}
+ -t 1.231390747 -s 0 -d 2 -p tcp -e 1040 -c 2 -i 20 -a 2 -x {0.0 3.0 2 ---A--- null}
- -t 1.231390747 -s 0 -d 2 -p tcp -e 1040 -c 2 -i 20 -a 2 -x {0.0 3.0 2 ---A--- null}
h -t 1.231390747 -s 0 -d 2 -p tcp -e 1040 -c 2 -i 20 -a 2 -x {0.0 3.0 -1 ---A--- null}
- -t 1.2452 -s 2 -d 3 -p tcp -e 1040 -c 1 -i 14 -a 1 -x {1.0 3.1 4 ------- null}
h -t 1.2452 -s 2 -d 3 -p tcp -e 1040 -c 1 -i 14 -a 1 -x {1.0 3.1 -1 ------- null}
r -t 1.2552 -s 2 -d 3 -p tcp -e 1040 -c 1 -i 12 -a 1 -x {1.0 3.1 3 ------- null}
+ -t 1.2552 -s 3 -d 2 -p ack -e 40 -c 1 -i 21 -a 1 -x {3.1 1.0 3 ------- null}
- -t 1.2552 -s 3 -d 2 -p ack -e 40 -c 1 -i 21 -a 1 -x {3.1 1.0 3 ------- null}
h -t 1.2552 -s 3 -d 2 -p ack -e 40 -c 1 -i 21 -a 1 -x {3.1 1.0 -1 ------- null}
r -t 1.2684 -s 3 -d 2 -p ack -e 40 -c 1 -i 21 -a 1 -x {3.1 1.0 3 ------- null}
+ -t 1.2684 -s 2 -d 1 -p ack -e 40 -c 1 -i 21 -a 1 -x {3.1 1.0 3 ------- null}
- -t 1.2684 -s 2 -d 1 -p ack -e 40 -c 1 -i 21 -a 1 -x {3.1 1.0 3 ------- null}
h -t 1.2684 -s 2 -d 1 -p ack -e 40 -c 1 -i 21 -a 1 -x {3.1 1.0 -1 ------- null}
- -t 1.2688 -s 1 -d 2 -p tcp -e 1040 -c 1 -i 19 -a 1 -x {1.0 3.1 6 ------- null}
h -t 1.2688 -s 1 -d 2 -p tcp -e 1040 -c 1 -i 19 -a 1 -x {1.0 3.1 -1 ------- null}
r -t 1.2788 -s 1 -d 2 -p tcp -e 1040 -c 1 -i 17 -a 1 -x {1.0 3.1 5 ------- null}
+ -t 1.2788 -s 2 -d 3 -p tcp -e 1040 -c 1 -i 17 -a 1 -x {1.0 3.1 5 ------- null}
r -t 1.2816 -s 2 -d 1 -p ack -e 40 -c 1 -i 21 -a 1 -x {3.1 1.0 3 ------- null}
r -t 1.324590747 -s 0 -d 2 -p tcp -e 1040 -c 2 -i 20 -a 2 -x {0.0 3.0 2 ---A--- null}
+ -t 1.324590747 -s 2 -d 3 -p tcp -e 1040 -c 2 -i 20 -a 2 -x {0.0 3.0 2 ---A--- null}
- -t 1.3284 -s 2 -d 3 -p tcp -e 1040 -c 1 -i 17 -a 1 -x {1.0 3.1 5 ------- null}
h -t 1.3284 -s 2 -d 3 -p tcp -e 1040 -c 1 -i 17 -a 1 -x {1.0 3.1 -1 ------- null}
r -t 1.3384 -s 2 -d 3 -p tcp -e 1040 -c 1 -i 14 -a 1 -x {1.0 3.1 4 ------- null}
+ -t 1.3384 -s 3 -d 2 -p ack -e 40 -c 1 -i 22 -a 1 -x {3.1 1.0 4 ------- null}
- -t 1.3384 -s 3 -d 2 -p ack -e 40 -c 1 -i 22 -a 1 -x {3.1 1.0 4 ------- null}
h -t 1.3384 -s 3 -d 2 -p ack -e 40 -c 1 -i 22 -a 1 -x {3.1 1.0 -1 ------- null}
r -t 1.3516 -s 3 -d 2 -p ack -e 40 -c 1 -i 22 -a 1 -x {3.1 1.0 4 ------- null}
+ -t 1.3516 -s 2 -d 1 -p ack -e 40 -c 1 -i 22 -a 1 -x {3.1 1.0 4 ------- null}
- -t 1.3516 -s 2 -d 1 -p ack -e 40 -c 1 -i 22 -a 1 -x {3.1 1.0 4 ------- null}
h -t 1.3516 -s 2 -d 1 -p ack -e 40 -c 1 -i 22 -a 1 -x {3.1 1.0 -1 ------- null}
r -t 1.362 -s 1 -d 2 -p tcp -e 1040 -c 1 -i 19 -a 1 -x {1.0 3.1 6 ------- null}
+ -t 1.362 -s 2 -d 3 -p tcp -e 1040 -c 1 -i 19 -a 1 -x {1.0 3.1 6 ------- null}
r -t 1.3648 -s 2 -d 1 -p ack -e 40 -c 1 -i 22 -a 1 -x {3.1 1.0 4 ------- null}
+ -t 1.3648 -s 1 -d 2 -p tcp -e 1040 -c 1 -i 23 -a 1 -x {1.0 3.1 7 ------- null}
- -t 1.3648 -s 1 -d 2 -p tcp -e 1040 -c 1 -i 23 -a 1 -x {1.0 3.1 7 ------- null}
h -t 1.3648 -s 1 -d 2 -p tcp -e 1040 -c 1 -i 23 -a 1 -x {1.0 3.1 -1 ------- null}
- -t 1.4116 -s 2 -d 3 -p tcp -e 1040 -c 2 -i 20 -a 2 -x {0.0 3.0 2 ---A--- null}
h -t 1.4116 -s 2 -d 3 -p tcp -e 1040 -c 2 -i 20 -a 2 -x {0.0 3.0 -1 ---A--- null}
r -t 1.4216 -s 2 -d 3 -p tcp -e 1040 -c 1 -i 17 -a 1 -x {1.0 3.1 5 ------- null}
+ -t 1.4216 -s 3 -d 2 -p ack -e 40 -c 1 -i 24 -a 1 -x {3.1 1.0 5 ------- null}
- -t 1.4216 -s 3 -d 2 -p ack -e 40 -c 1 -i 24 -a 1 -x {3.1 1.0 5 ------- null}
h -t 1.4216 -s 3 -d 2 -p ack -e 40 -c 1 -i 24 -a 1 -x {3.1 1.0 -1 ------- null}
r -t 1.4348 -s 3 -d 2 -p ack -e 40 -c 1 -i 24 -a 1 -x {3.1 1.0 5 ------- null}
+ -t 1.4348 -s 2 -d 1 -p ack -e 40 -c 1 -i 24 -a 1 -x {3.1 1.0 5 ------- null}
- -t 1.4348 -s 2 -d 1 -p ack -e 40 -c 1 -i 24 -a 1 -x {3.1 1.0 5 ------- null}
h -t 1.4348 -s 2 -d 1 -p ack -e 40 -c 1 -i 24 -a 1 -x {3.1 1.0 -1 ------- null}
r -t 1.448 -s 2 -d 1 -p ack -e 40 -c 1 -i 24 -a 1 -x {3.1 1.0 5 ------- null}
+ -t 1.448 -s 1 -d 2 -p tcp -e 1040 -c 1 -i 25 -a 1 -x {1.0 3.1 8 ------- null}
- -t 1.448 -s 1 -d 2 -p tcp -e 1040 -c 1 -i 25 -a 1 -x {1.0 3.1 8 ------- null}
h -t 1.448 -s 1 -d 2 -p tcp -e 1040 -c 1 -i 25 -a 1 -x {1.0 3.1 -1 ------- null}
r -t 1.458 -s 1 -d 2 -p tcp -e 1040 -c 1 -i 23 -a 1 -x {1.0 3.1 7 ------- null}
+ -t 1.458 -s 2 -d 3 -p tcp -e 1040 -c 1 -i 23 -a 1 -x {1.0 3.1 7 ------- null}
- -t 1.4948 -s 2 -d 3 -p tcp -e 1040 -c 1 -i 19 -a 1 -x {1.0 3.1 6 ------- null}
h -t 1.4948 -s 2 -d 3 -p tcp -e 1040 -c 1 -i 19 -a 1 -x {1.0 3.1 -1 ------- null}
r -t 1.5048 -s 2 -d 3 -p tcp -e 1040 -c 2 -i 20 -a 2 -x {0.0 3.0 2 ---A--- null}
+ -t 1.5048 -s 3 -d 2 -p ack -e 40 -c 2 -i 26 -a 2 -x {3.0 0.0 2 ------- null}
- -t 1.5048 -s 3 -d 2 -p ack -e 40 -c 2 -i 26 -a 2 -x {3.0 0.0 2 ------- null}
h -t 1.5048 -s 3 -d 2 -p ack -e 40 -c 2 -i 26 -a 2 -x {3.0 0.0 -1 ------- null}
r -t 1.518 -s 3 -d 2 -p ack -e 40 -c 2 -i 26 -a 2 -x {3.0 0.0 2 ------- null}
+ -t 1.518 -s 2 -d 0 -p ack -e 40 -c 2 -i 26 -a 2 -x {3.0 0.0 2 ------- null}
- -t 1.518 -s 2 -d 0 -p ack -e 40 -c 2 -i 26 -a 2 -x {3.0 0.0 2 ------- null}
h -t 1.518 -s 2 -d 0 -p ack -e 40 -c 2 -i 26 -a 2 -x {3.0 0.0 -1 ------- null}
r -t 1.5312 -s 2 -d 0 -p ack -e 40 -c 2 -i 26 -a 2 -x {3.0 0.0 2 ------- null}
+ -t 1.5312 -s 0 -d 2 -p tcp -e 1040 -c 2 -i 27 -a 2 -x {0.0 3.0 3 ------- null}
- -t 1.5312 -s 0 -d 2 -p tcp -e 1040 -c 2 -i 27 -a 2 -x {0.0 3.0 3 ------- null}
h -t 1.5312 -s 0 -d 2 -p tcp -e 1040 -c 2 -i 27 -a 2 -x {0.0 3.0 -1 ------- null}
r -t 1.5412 -s 1 -d 2 -p tcp -e 1040 -c 1 -i 25 -a 1 -x {1.0 3.1 8 ------- null}
+ -t 1.5412 -s 2 -d 3 -p tcp -e 1040 -c 1 -i 25 -a 1 -x {1.0 3.1 8 ------- null}
- -t 1.578 -s 2 -d 3 -p tcp -e 1040 -c 1 -i 23 -a 1 -x {1.0 3.1 7 ------- null}
h -t 1.578 -s 2 -d 3 -p tcp -e 1040 -c 1 -i 23 -a 1 -x {1.0 3.1 -1 ------- null}
r -t 1.588 -s 2 -d 3 -p tcp -e 1040 -c 1 -i 19 -a 1 -x {1.0 3.1 6 ------- null}
+ -t 1.588 -s 3 -d 2 -p ack -e 40 -c 1 -i 28 -a 1 -x {3.1 1.0 6 ------- null}
- -t 1.588 -s 3 -d 2 -p ack -e 40 -c 1 -i 28 -a 1 -x {3.1 1.0 6 ------- null}
h -t 1.588 -s 3 -d 2 -p ack -e 40 -c 1 -i 28 -a 1 -x {3.1 1.0 -1 ------- null}
r -t 1.6012 -s 3 -d 2 -p ack -e 40 -c 1 -i 28 -a 1 -x {3.1 1.0 6 ------- null}
+ -t 1.6012 -s 2 -d 1 -p ack -e 40 -c 1 -i 28 -a 1 -x {3.1 1.0 6 ------- null}
- -t 1.6012 -s 2 -d 1 -p ack -e 40 -c 1 -i 28 -a 1 -x {3.1 1.0 6 ------- null}
h -t 1.6012 -s 2 -d 1 -p ack -e 40 -c 1 -i 28 -a 1 -x {3.1 1.0 -1 ------- null}
r -t 1.6144 -s 2 -d 1 -p ack -e 40 -c 1 -i 28 -a 1 -x {3.1 1.0 6 ------- null}
+ -t 1.6144 -s 1 -d 2 -p tcp -e 1040 -c 1 -i 29 -a 1 -x {1.0 3.1 9 ------- null}
- -t 1.6144 -s 1 -d 2 -p tcp -e 1040 -c 1 -i 29 -a 1 -x {1.0 3.1 9 ------- null}
h -t 1.6144 -s 1 -d 2 -p tcp -e 1040 -c 1 -i 29 -a 1 -x {1.0 3.1 -1 ------- null}
r -t 1.6244 -s 0 -d 2 -p tcp -e 1040 -c 2 -i 27 -a 2 -x {0.0 3.0 3 ------- null}
+ -t 1.6244 -s 2 -d 3 -p tcp -e 1040 -c 2 -i 27 -a 2 -x {0.0 3.0 3 ------- null}
- -t 1.6612 -s 2 -d 3 -p tcp -e 1040 -c 1 -i 25 -a 1 -x {1.0 3.1 8 ------- null}
h -t 1.6612 -s 2 -d 3 -p tcp -e 1040 -c 1 -i 25 -a 1 -x {1.0 3.1 -1 ------- null}
r -t 1.6712 -s 2 -d 3 -p tcp -e 1040 -c 1 -i 23 -a 1 -x {1.0 3.1 7 ------- null}
+ -t 1.6712 -s 3 -d 2 -p ack -e 40 -c 1 -i 30 -a 1 -x {3.1 1.0 7 ------- null}
- -t 1.6712 -s 3 -d 2 -p ack -e 40 -c 1 -i 30 -a 1 -x {3.1 1.0 7 ------- null}
h -t 1.6712 -s 3 -d 2 -p ack -e 40 -c 1 -i 30 -a 1 -x {3.1 1.0 -1 ------- null}
r -t 1.6844 -s 3 -d 2 -p ack -e 40 -c 1 -i 30 -a 1 -x {3.1 1.0 7 ------- null}
+ -t 1.6844 -s 2 -d 1 -p ack -e 40 -c 1 -i 30 -a 1 -x {3.1 1.0 7 ------- null}
- -t 1.6844 -s 2 -d 1 -p ack -e 40 -c 1 -i 30 -a 1 -x {3.1 1.0 7 ------- null}
h -t 1.6844 -s 2 -d 1 -p ack -e 40 -c 1 -i 30 -a 1 -x {3.1 1.0 -1 ------- null}
r -t 1.6976 -s 2 -d 1 -p ack -e 40 -c 1 -i 30 -a 1 -x {3.1 1.0 7 ------- null}
+ -t 1.6976 -s 1 -d 2 -p tcp -e 1040 -c 1 -i 31 -a 1 -x {1.0 3.1 10 ------- null}
- -t 1.6976 -s 1 -d 2 -p tcp -e 1040 -c 1 -i 31 -a 1 -x {1.0 3.1 10 ------- null}
h -t 1.6976 -s 1 -d 2 -p tcp -e 1040 -c 1 -i 31 -a 1 -x {1.0 3.1 -1 ------- null}
+ -t 1.6976 -s 1 -d 2 -p tcp -e 1040 -c 1 -i 32 -a 1 -x {1.0 3.1 11 ------- null}
r -t 1.7076 -s 1 -d 2 -p tcp -e 1040 -c 1 -i 29 -a 1 -x {1.0 3.1 9 ------- null}
+ -t 1.7076 -s 2 -d 3 -p tcp -e 1040 -c 1 -i 29 -a 1 -x {1.0 3.1 9 ------- null}
- -t 1.7444 -s 2 -d 3 -p tcp -e 1040 -c 2 -i 27 -a 2 -x {0.0 3.0 3 ------- null}
h -t 1.7444 -s 2 -d 3 -p tcp -e 1040 -c 2 -i 27 -a 2 -x {0.0 3.0 -1 ------- null}
r -t 1.7544 -s 2 -d 3 -p tcp -e 1040 -c 1 -i 25 -a 1 -x {1.0 3.1 8 ------- null}
+ -t 1.7544 -s 3 -d 2 -p ack -e 40 -c 1 -i 33 -a 1 -x {3.1 1.0 8 ------- null}
- -t 1.7544 -s 3 -d 2 -p ack -e 40 -c 1 -i 33 -a 1 -x {3.1 1.0 8 ------- null}
h -t 1.7544 -s 3 -d 2 -p ack -e 40 -c 1 -i 33 -a 1 -x {3.1 1.0 -1 ------- null}
r -t 1.7676 -s 3 -d 2 -p ack -e 40 -c 1 -i 33 -a 1 -x {3.1 1.0 8 ------- null}
+ -t 1.7676 -s 2 -d 1 -p ack -e 40 -c 1 -i 33 -a 1 -x {3.1 1.0 8 ------- null}
- -t 1.7676 -s 2 -d 1 -p ack -e 40 -c 1 -i 33 -a 1 -x {3.1 1.0 8 ------- null}
h -t 1.7676 -s 2 -d 1 -p ack -e 40 -c 1 -i 33 -a 1 -x {3.1 1.0 -1 ------- null}
- -t 1.7808 -s 1 -d 2 -p tcp -e 1040 -c 1 -i 32 -a 1 -x {1.0 3.1 11 ------- null}
h -t 1.7808 -s 1 -d 2 -p tcp -e 1040 -c 1 -i 32 -a 1 -x {1.0 3.1 -1 ------- null}
r -t 1.7808 -s 2 -d 1 -p ack -e 40 -c 1 -i 33 -a 1 -x {3.1 1.0 8 ------- null}
+ -t 1.7808 -s 1 -d 2 -p tcp -e 1040 -c 1 -i 34 -a 1 -x {1.0 3.1 12 ------- null}
r -t 1.7908 -s 1 -d 2 -p tcp -e 1040 -c 1 -i 31 -a 1 -x {1.0 3.1 10 ------- null}
+ -t 1.7908 -s 2 -d 3 -p tcp -e 1040 -c 1 -i 31 -a 1 -x {1.0 3.1 10 ------- null}
- -t 1.8276 -s 2 -d 3 -p tcp -e 1040 -c 1 -i 29 -a 1 -x {1.0 3.1 9 ------- null}
h -t 1.8276 -s 2 -d 3 -p tcp -e 1040 -c 1 -i 29 -a 1 -x {1.0 3.1 -1 ------- null}
r -t 1.8376 -s 2 -d 3 -p tcp -e 1040 -c 2 -i 27 -a 2 -x {0.0 3.0 3 ------- null}
+ -t 1.8376 -s 3 -d 2 -p ack -e 40 -c 2 -i 35 -a 2 -x {3.0 0.0 3 ------- null}
- -t 1.8376 -s 3 -d 2 -p ack -e 40 -c 2 -i 35 -a 2 -x {3.0 0.0 3 ------- null}
h -t 1.8376 -s 3 -d 2 -p ack -e 40 -c 2 -i 35 -a 2 -x {3.0 0.0 -1 ------- null}
r -t 1.8508 -s 3 -d 2 -p ack -e 40 -c 2 -i 35 -a 2 -x {3.0 0.0 3 ------- null}
+ -t 1.8508 -s 2 -d 0 -p ack -e 40 -c 2 -i 35 -a 2 -x {3.0 0.0 3 ------- null}
- -t 1.8508 -s 2 -d 0 -p ack -e 40 -c 2 -i 35 -a 2 -x {3.0 0.0 3 ------- null}
h -t 1.8508 -s 2 -d 0 -p ack -e 40 -c 2 -i 35 -a 2 -x {3.0 0.0 -1 ------- null}
- -t 1.864 -s 1 -d 2 -p tcp -e 1040 -c 1 -i 34 -a 1 -x {1.0 3.1 12 ------- null}
h -t 1.864 -s 1 -d 2 -p tcp -e 1040 -c 1 -i 34 -a 1 -x {1.0 3.1 -1 ------- null}
r -t 1.864 -s 2 -d 0 -p ack -e 40 -c 2 -i 35 -a 2 -x {3.0 0.0 3 ------- null}
r -t 1.874 -s 1 -d 2 -p tcp -e 1040 -c 1 -i 32 -a 1 -x {1.0 3.1 11 ------- null}
+ -t 1.874 -s 2 -d 3 -p tcp -e 1040 -c 1 -i 32 -a 1 -x {1.0 3.1 11 ------- null}
- -t 1.9108 -s 2 -d 3 -p tcp -e 1040 -c 1 -i 31 -a 1 -x {1.0 3.1 10 ------- null}
h -t 1.9108 -s 2 -d 3 -p tcp -e 1040 -c 1 -i 31 -a 1 -x {1.0 3.1 -1 ------- null}
r -t 1.9208 -s 2 -d 3 -p tcp -e 1040 -c 1 -i 29 -a 1 -x {1.0 3.1 9 ------- null}
+ -t 1.9208 -s 3 -d 2 -p ack -e 40 -c 1 -i 36 -a 1 -x {3.1 1.0 9 ------- null}
- -t 1.9208 -s 3 -d 2 -p ack -e 40 -c 1 -i 36 -a 1 -x {3.1 1.0 9 ------- null}
h -t 1.9208 -s 3 -d 2 -p ack -e 40 -c 1 -i 36 -a 1 -x {3.1 1.0 -1 ------- null}
r -t 1.934 -s 3 -d 2 -p ack -e 40 -c 1 -i 36 -a 1 -x {3.1 1.0 9 ------- null}
+ -t 1.934 -s 2 -d 1 -p ack -e 40 -c 1 -i 36 -a 1 -x {3.1 1.0 9 ------- null}
- -t 1.934 -s 2 -d 1 -p ack -e 40 -c 1 -i 36 -a 1 -x {3.1 1.0 9 ------- null}
h -t 1.934 -s 2 -d 1 -p ack -e 40 -c 1 -i 36 -a 1 -x {3.1 1.0 -1 ------- null}
r -t 1.9472 -s 2 -d 1 -p ack -e 40 -c 1 -i 36 -a 1 -x {3.1 1.0 9 ------- null}
+ -t 1.9472 -s 1 -d 2 -p tcp -e 1040 -c 1 -i 37 -a 1 -x {1.0 3.1 13 ------- null}
- -t 1.9472 -s 1 -d 2 -p tcp -e 1040 -c 1 -i 37 -a 1 -x {1.0 3.1 13 ------- null}
h -t 1.9472 -s 1 -d 2 -p tcp -e 1040 -c 1 -i 37 -a 1 -x {1.0 3.1 -1 ------- null}
r -t 1.9572 -s 1 -d 2 -p tcp -e 1040 -c 1 -i 34 -a 1 -x {1.0 3.1 12 ------- null}
+ -t 1.9572 -s 2 -d 3 -p tcp -e 1040 -c 1 -i 34 -a 1 -x {1.0 3.1 12 ------- null}
- -t 1.994 -s 2 -d 3 -p tcp -e 1040 -c 1 -i 32 -a 1 -x {1.0 3.1 11 ------- null}
h -t 1.994 -s 2 -d 3 -p tcp -e 1040 -c 1 -i 32 -a 1 -x {1.0 3.1 -1 ------- null}
r -t 2.004 -s 2 -d 3 -p tcp -e 1040 -c 1 -i 31 -a 1 -x {1.0 3.1 10 ------- null}
+ -t 2.004 -s 3 -d 2 -p ack -e 40 -c 1 -i 38 -a 1 -x {3.1 1.0 10 ------- null}
- -t 2.004 -s 3 -d 2 -p ack -e 40 -c 1 -i 38 -a 1 -x {3.1 1.0 10 ------- null}
h -t 2.004 -s 3 -d 2 -p ack -e 40 -c 1 -i 38 -a 1 -x {3.1 1.0 -1 ------- null}
r -t 2.0172 -s 3 -d 2 -p ack -e 40 -c 1 -i 38 -a 1 -x {3.1 1.0 10 ------- null}
+ -t 2.0172 -s 2 -d 1 -p ack -e 40 -c 1 -i 38 -a 1 -x {3.1 1.0 10 ------- null}
- -t 2.0172 -s 2 -d 1 -p ack -e 40 -c 1 -i 38 -a 1 -x {3.1 1.0 10 ------- null}
h -t 2.0172 -s 2 -d 1 -p ack -e 40 -c 1 -i 38 -a 1 -x {3.1 1.0 -1 ------- null}
r -t 2.0304 -s 2 -d 1 -p ack -e 40 -c 1 -i 38 -a 1 -x {3.1 1.0 10 ------- null}
+ -t 2.0304 -s 1 -d 2 -p tcp -e 1040 -c 1 -i 39 -a 1 -x {1.0 3.1 14 ------- null}
- -t 2.0304 -s 1 -d 2 -p tcp -e 1040 -c 1 -i 39 -a 1 -x {1.0 3.1 14 ------- null}
h -t 2.0304 -s 1 -d 2 -p tcp -e 1040 -c 1 -i 39 -a 1 -x {1.0 3.1 -1 ------- null}
r -t 2.0404 -s 1 -d 2 -p tcp -e 1040 -c 1 -i 37 -a 1 -x {1.0 3.1 13 ------- null}
+ -t 2.0404 -s 2 -d 3 -p tcp -e 1040 -c 1 -i 37 -a 1 -x {1.0 3.1 13 ------- null}
- -t 2.0772 -s 2 -d 3 -p tcp -e 1040 -c 1 -i 34 -a 1 -x {1.0 3.1 12 ------- null}
h -t 2.0772 -s 2 -d 3 -p tcp -e 1040 -c 1 -i 34 -a 1 -x {1.0 3.1 -1 ------- null}
r -t 2.0872 -s 2 -d 3 -p tcp -e 1040 -c 1 -i 32 -a 1 -x {1.0 3.1 11 ------- null}
+ -t 2.0872 -s 3 -d 2 -p ack -e 40 -c 1 -i 40 -a 1 -x {3.1 1.0 11 ------- null}
- -t 2.0872 -s 3 -d 2 -p ack -e 40 -c 1 -i 40 -a 1 -x {3.1 1.0 11 ------- null}
h -t 2.0872 -s 3 -d 2 -p ack -e 40 -c 1 -i 40 -a 1 -x {3.1 1.0 -1 ------- null}
r -t 2.1004 -s 3 -d 2 -p ack -e 40 -c 1 -i 40 -a 1 -x {3.1 1.0 11 ------- null}
+ -t 2.1004 -s 2 -d 1 -p ack -e 40 -c 1 -i 40 -a 1 -x {3.1 1.0 11 ------- null}
- -t 2.1004 -s 2 -d 1 -p ack -e 40 -c 1 -i 40 -a 1 -x {3.1 1.0 11 ------- null}
h -t 2.1004 -s 2 -d 1 -p ack -e 40 -c 1 -i 40 -a 1 -x {3.1 1.0 -1 ------- null}
r -t 2.1136 -s 2 -d 1 -p ack -e 40 -c 1 -i 40 -a 1 -x {3.1 1.0 11 ------- null}
+ -t 2.1136 -s 1 -d 2 -p tcp -e 1040 -c 1 -i 41 -a 1 -x {1.0 3.1 15 ------- null}
- -t 2.1136 -s 1 -d 2 -p tcp -e 1040 -c 1 -i 41 -a 1 -x {1.0 3.1 15 ------- null}
h -t 2.1136 -s 1 -d 2 -p tcp -e 1040 -c 1 -i 41 -a 1 -x {1.0 3.1 -1 ------- null}
r -t 2.1236 -s 1 -d 2 -p tcp -e 1040 -c 1 -i 39 -a 1 -x {1.0 3.1 14 ------- null}
+ -t 2.1236 -s 2 -d 3 -p tcp -e 1040 -c 1 -i 39 -a 1 -x {1.0 3.1 14 ------- null}
- -t 2.1604 -s 2 -d 3 -p tcp -e 1040 -c 1 -i 37 -a 1 -x {1.0 3.1 13 ------- null}
h -t 2.1604 -s 2 -d 3 -p tcp -e 1040 -c 1 -i 37 -a 1 -x {1.0 3.1 -1 ------- null}
r -t 2.1704 -s 2 -d 3 -p tcp -e 1040 -c 1 -i 34 -a 1 -x {1.0 3.1 12 ------- null}
+ -t 2.1704 -s 3 -d 2 -p ack -e 40 -c 1 -i 42 -a 1 -x {3.1 1.0 12 ------- null}
- -t 2.1704 -s 3 -d 2 -p ack -e 40 -c 1 -i 42 -a 1 -x {3.1 1.0 12 ------- null}
h -t 2.1704 -s 3 -d 2 -p ack -e 40 -c 1 -i 42 -a 1 -x {3.1 1.0 -1 ------- null}
r -t 2.1836 -s 3 -d 2 -p ack -e 40 -c 1 -i 42 -a 1 -x {3.1 1.0 12 ------- null}
+ -t 2.1836 -s 2 -d 1 -p ack -e 40 -c 1 -i 42 -a 1 -x {3.1 1.0 12 ------- null}
- -t 2.1836 -s 2 -d 1 -p ack -e 40 -c 1 -i 42 -a 1 -x {3.1 1.0 12 ------- null}
h -t 2.1836 -s 2 -d 1 -p ack -e 40 -c 1 -i 42 -a 1 -x {3.1 1.0 -1 ------- null}
r -t 2.1968 -s 2 -d 1 -p ack -e 40 -c 1 -i 42 -a 1 -x {3.1 1.0 12 ------- null}
+ -t 2.1968 -s 1 -d 2 -p tcp -e 1040 -c 1 -i 43 -a 1 -x {1.0 3.1 16 ------- null}
+ -t 2.1968 -s 1 -d 2 -p tcp -e 1040 -c 1 -i 44 -a 1 -x {1.0 3.1 17 ------- null}
- -t 2.1968 -s 1 -d 2 -p tcp -e 1040 -c 1 -i 43 -a 1 -x {1.0 3.1 16 ------- null}
h -t 2.1968 -s 1 -d 2 -p tcp -e 1040 -c 1 -i 43 -a 1 -x {1.0 3.1 -1 ------- null}
+ -t 2.198436356 -s 0 -d 2 -p tcp -e 1040 -c 2 -i 45 -a 2 -x {0.0 3.0 4 ------- null}
- -t 2.198436356 -s 0 -d 2 -p tcp -e 1040 -c 2 -i 45 -a 2 -x {0.0 3.0 4 ------- null}
h -t 2.198436356 -s 0 -d 2 -p tcp -e 1040 -c 2 -i 45 -a 2 -x {0.0 3.0 -1 ------- null}
r -t 2.2068 -s 1 -d 2 -p tcp -e 1040 -c 1 -i 41 -a 1 -x {1.0 3.1 15 ------- null}
+ -t 2.2068 -s 2 -d 3 -p tcp -e 1040 -c 1 -i 41 -a 1 -x {1.0 3.1 15 ------- null}
- -t 2.2436 -s 2 -d 3 -p tcp -e 1040 -c 1 -i 39 -a 1 -x {1.0 3.1 14 ------- null}
h -t 2.2436 -s 2 -d 3 -p tcp -e 1040 -c 1 -i 39 -a 1 -x {1.0 3.1 -1 ------- null}
r -t 2.2536 -s 2 -d 3 -p tcp -e 1040 -c 1 -i 37 -a 1 -x {1.0 3.1 13 ------- null}
+ -t 2.2536 -s 3 -d 2 -p ack -e 40 -c 1 -i 46 -a 1 -x {3.1 1.0 13 ------- null}
- -t 2.2536 -s 3 -d 2 -p ack -e 40 -c 1 -i 46 -a 1 -x {3.1 1.0 13 ------- null}
h -t 2.2536 -s 3 -d 2 -p ack -e 40 -c 1 -i 46 -a 1 -x {3.1 1.0 -1 ------- null}
r -t 2.2668 -s 3 -d 2 -p ack -e 40 -c 1 -i 46 -a 1 -x {3.1 1.0 13 ------- null}
+ -t 2.2668 -s 2 -d 1 -p ack -e 40 -c 1 -i 46 -a 1 -x {3.1 1.0 13 ------- null}
- -t 2.2668 -s 2 -d 1 -p ack -e 40 -c 1 -i 46 -a 1 -x {3.1 1.0 13 ------- null}
h -t 2.2668 -s 2 -d 1 -p ack -e 40 -c 1 -i 46 -a 1 -x {3.1 1.0 -1 ------- null}
r -t 2.28 -s 2 -d 1 -p ack -e 40 -c 1 -i 46 -a 1 -x {3.1 1.0 13 ------- null}
+ -t 2.28 -s 1 -d 2 -p tcp -e 1040 -c 1 -i 47 -a 1 -x {1.0 3.1 18 ------- null}
- -t 2.28 -s 1 -d 2 -p tcp -e 1040 -c 1 -i 44 -a 1 -x {1.0 3.1 17 ------- null}
h -t 2.28 -s 1 -d 2 -p tcp -e 1040 -c 1 -i 44 -a 1 -x {1.0 3.1 -1 ------- null}
r -t 2.29 -s 1 -d 2 -p tcp -e 1040 -c 1 -i 43 -a 1 -x {1.0 3.1 16 ------- null}
+ -t 2.29 -s 2 -d 3 -p tcp -e 1040 -c 1 -i 43 -a 1 -x {1.0 3.1 16 ------- null}
r -t 2.291636356 -s 0 -d 2 -p tcp -e 1040 -c 2 -i 45 -a 2 -x {0.0 3.0 4 ------- null}
+ -t 2.291636356 -s 2 -d 3 -p tcp -e 1040 -c 2 -i 45 -a 2 -x {0.0 3.0 4 ------- null}
- -t 2.3268 -s 2 -d 3 -p tcp -e 1040 -c 1 -i 41 -a 1 -x {1.0 3.1 15 ------- null}
h -t 2.3268 -s 2 -d 3 -p tcp -e 1040 -c 1 -i 41 -a 1 -x {1.0 3.1 -1 ------- null}
+ -t 2.328187195 -s 0 -d 2 -p tcp -e 1040 -c 2 -i 48 -a 2 -x {0.0 3.0 5 ------- null}