+ 0.5 0 2 cbr 512 ------- 2 0.0 2.0 0 0
- 0.5 0 2 cbr 512 ------- 2 0.0 2.0 0 0
+ 0.505 0 2 cbr 512 ------- 2 0.0 2.0 1 1
- 0.505851 0 2 cbr 512 ------- 2 0.0 2.0 1 1
+ 0.51 0 2 cbr 512 ------- 2 0.0 2.0 2 2
- 0.511703 0 2 cbr 512 ------- 2 0.0 2.0 2 2
+ 0.515 0 2 cbr 512 ------- 2 0.0 2.0 3 3
- 0.517554 0 2 cbr 512 ------- 2 0.0 2.0 3 3
+ 0.52 0 2 cbr 512 ------- 2 0.0 2.0 4 4
- 0.523406 0 2 cbr 512 ------- 2 0.0 2.0 4 4
+ 0.525 0 2 cbr 512 ------- 2 0.0 2.0 5 5
r 0.525851 0 2 cbr 512 ------- 2 0.0 2.0 0 0
- 0.529257 0 2 cbr 512 ------- 2 0.0 2.0 5 5
+ 0.53 0 2 cbr 512 ------- 2 0.0 2.0 6 6
r 0.531703 0 2 cbr 512 ------- 2 0.0 2.0 1 1
+ 0.535 0 2 cbr 512 ------- 2 0.0 2.0 7 7
- 0.535109 0 2 cbr 512 ------- 2 0.0 2.0 6 6
r 0.537554 0 2 cbr 512 ------- 2 0.0 2.0 2 2
+ 0.54 0 2 cbr 512 ------- 2 0.0 2.0 8 8
- 0.54096 0 2 cbr 512 ------- 2 0.0 2.0 7 7
r 0.543406 0 2 cbr 512 ------- 2 0.0 2.0 3 3
+ 0.545 0 2 cbr 512 ------- 2 0.0 2.0 9 9
- 0.546811 0 2 cbr 512 ------- 2 0.0 2.0 8 8
r 0.549257 0 2 cbr 512 ------- 2 0.0 2.0 4 4
+ 0.55 0 2 cbr 512 ------- 2 0.0 2.0 10 10
- 0.552663 0 2 cbr 512 ------- 2 0.0 2.0 9 9
+ 0.555 0 2 cbr 512 ------- 2 0.0 2.0 11 11
r 0.555109 0 2 cbr 512 ------- 2 0.0 2.0 5 5
- 0.558514 0 2 cbr 512 ------- 2 0.0 2.0 10 10
+ 0.56 0 2 cbr 512 ------- 2 0.0 2.0 12 12
r 0.56096 0 2 cbr 512 ------- 2 0.0 2.0 6 6
- 0.564366 0 2 cbr 512 ------- 2 0.0 2.0 11 11
+ 0.565 0 2 cbr 512 ------- 2 0.0 2.0 13 13
r 0.566811 0 2 cbr 512 ------- 2 0.0 2.0 7 7
+ 0.57 0 2 cbr 512 ------- 2 0.0 2.0 14 14
- 0.570217 0 2 cbr 512 ------- 2 0.0 2.0 12 12
r 0.572663 0 2 cbr 512 ------- 2 0.0 2.0 8 8
+ 0.575 0 2 cbr 512 ------- 2 0.0 2.0 15 15
- 0.576069 0 2 cbr 512 ------- 2 0.0 2.0 13 13
r 0.578514 0 2 cbr 512 ------- 2 0.0 2.0 9 9
+ 0.58 0 2 cbr 512 ------- 2 0.0 2.0 16 16
- 0.58192 0 2 cbr 512 ------- 2 0.0 2.0 14 14
r 0.584366 0 2 cbr 512 ------- 2 0.0 2.0 10 10
+ 0.585 0 2 cbr 512 ------- 2 0.0 2.0 17 17
- 0.587771 0 2 cbr 512 ------- 2 0.0 2.0 15 15
+ 0.59 0 2 cbr 512 ------- 2 0.0 2.0 18 18
r 0.590217 0 2 cbr 512 ------- 2 0.0 2.0 11 11
- 0.593623 0 2 cbr 512 ------- 2 0.0 2.0 16 16
+ 0.595 0 2 cbr 512 ------- 2 0.0 2.0 19 19
r 0.596069 0 2 cbr 512 ------- 2 0.0 2.0 12 12
- 0.599474 0 2 cbr 512 ------- 2 0.0 2.0 17 17
+ 0.6 0 2 cbr 512 ------- 2 0.0 2.0 20 20
r 0.60192 0 2 cbr 512 ------- 2 0.0 2.0 13 13
+ 0.605 0 2 cbr 512 ------- 2 0.0 2.0 21 21
- 0.605326 0 2 cbr 512 ------- 2 0.0 2.0 18 18
r 0.607771 0 2 cbr 512 ------- 2 0.0 2.0 14 14
+ 0.61 0 2 cbr 512 ------- 2 0.0 2.0 22 22
- 0.611177 0 2 cbr 512 ------- 2 0.0 2.0 19 19
r 0.613623 0 2 cbr 512 ------- 2 0.0 2.0 15 15
+ 0.615 0 2 cbr 512 ------- 2 0.0 2.0 23 23
- 0.617029 0 2 cbr 512 ------- 2 0.0 2.0 20 20
r 0.619474 0 2 cbr 512 ------- 2 0.0 2.0 16 16
+ 0.62 0 2 cbr 512 ------- 2 0.0 2.0 24 24
- 0.62288 0 2 cbr 512 ------- 2 0.0 2.0 21 21
+ 0.625 0 2 cbr 512 ------- 2 0.0 2.0 25 25
r 0.625326 0 2 cbr 512 ------- 2 0.0 2.0 17 17
- 0.628731 0 2 cbr 512 ------- 2 0.0 2.0 22 22
+ 0.63 0 2 cbr 512 ------- 2 0.0 2.0 26 26
r 0.631177 0 2 cbr 512 ------- 2 0.0 2.0 18 18
- 0.634583 0 2 cbr 512 ------- 2 0.0 2.0 23 23
+ 0.635 0 2 cbr 512 ------- 2 0.0 2.0 27 27
r 0.637029 0 2 cbr 512 ------- 2 0.0 2.0 19 19
+ 0.64 0 2 cbr 512 ------- 2 0.0 2.0 28 28
- 0.640434 0 2 cbr 512 ------- 2 0.0 2.0 24 24
r 0.64288 0 2 cbr 512 ------- 2 0.0 2.0 20 20
+ 0.645 0 2 cbr 512 ------- 2 0.0 2.0 29 29
- 0.646286 0 2 cbr 512 ------- 2 0.0 2.0 25 25
r 0.648731 0 2 cbr 512 ------- 2 0.0 2.0 21 21
+ 0.65 0 2 cbr 512 ------- 2 0.0 2.0 30 30
- 0.652137 0 2 cbr 512 ------- 2 0.0 2.0 26 26
r 0.654583 0 2 cbr 512 ------- 2 0.0 2.0 22 22
+ 0.655 0 2 cbr 512 ------- 2 0.0 2.0 31 31
- 0.657989 0 2 cbr 512 ------- 2 0.0 2.0 27 27
+ 0.66 0 2 cbr 512 ------- 2 0.0 2.0 32 32
r 0.660434 0 2 cbr 512 ------- 2 0.0 2.0 23 23
- 0.66384 0 2 cbr 512 ------- 2 0.0 2.0 28 28
+ 0.665 0 2 cbr 512 ------- 2 0.0 2.0 33 33
r 0.666286 0 2 cbr 512 ------- 2 0.0 2.0 24 24
- 0.669691 0 2 cbr 512 ------- 2 0.0 2.0 29 29
+ 0.67 0 2 cbr 512 ------- 2 0.0 2.0 34 34
r 0.672137 0 2 cbr 512 ------- 2 0.0 2.0 25 25
+ 0.675 0 2 cbr 512 ------- 2 0.0 2.0 35 35
- 0.675543 0 2 cbr 512 ------- 2 0.0 2.0 30 30
r 0.677989 0 2 cbr 512 ------- 2 0.0 2.0 26 26
+ 0.68 0 2 cbr 512 ------- 2 0.0 2.0 36 36
- 0.681394 0 2 cbr 512 ------- 2 0.0 2.0 31 31
r 0.68384 0 2 cbr 512 ------- 2 0.0 2.0 27 27
+ 0.685 0 2 cbr 512 ------- 2 0.0 2.0 37 37
- 0.687246 0 2 cbr 512 ------- 2 0.0 2.0 32 32
r 0.689691 0 2 cbr 512 ------- 2 0.0 2.0 28 28
+ 0.69 0 2 cbr 512 ------- 2 0.0 2.0 38 38
- 0.693097 0 2 cbr 512 ------- 2 0.0 2.0 33 33
+ 0.695 0 2 cbr 512 ------- 2 0.0 2.0 39 39
r 0.695543 0 2 cbr 512 ------- 2 0.0 2.0 29 29
- 0.698949 0 2 cbr 512 ------- 2 0.0 2.0 34 34
+ 0.7 0 2 cbr 512 ------- 2 0.0 2.0 40 40
r 0.701394 0 2 cbr 512 ------- 2 0.0 2.0 30 30
- 0.7048 0 2 cbr 512 ------- 2 0.0 2.0 35 35
+ 0.705 0 2 cbr 512 ------- 2 0.0 2.0 41 41
r 0.707246 0 2 cbr 512 ------- 2 0.0 2.0 31 31
+ 0.71 0 2 cbr 512 ------- 2 0.0 2.0 42 42
- 0.710651 0 2 cbr 512 ------- 2 0.0 2.0 36 36
r 0.713097 0 2 cbr 512 ------- 2 0.0 2.0 32 32
+ 0.715 0 2 cbr 512 ------- 2 0.0 2.0 43 43
- 0.716503 0 2 cbr 512 ------- 2 0.0 2.0 37 37
r 0.718949 0 2 cbr 512 ------- 2 0.0 2.0 33 33
+ 0.72 0 2 cbr 512 ------- 2 0.0 2.0 44 44
- 0.722354 0 2 cbr 512 ------- 2 0.0 2.0 38 38
r 0.7248 0 2 cbr 512 ------- 2 0.0 2.0 34 34
+ 0.725 0 2 cbr 512 ------- 2 0.0 2.0 45 45
- 0.728206 0 2 cbr 512 ------- 2 0.0 2.0 39 39
+ 0.73 0 2 cbr 512 ------- 2 0.0 2.0 46 46
r 0.730651 0 2 cbr 512 ------- 2 0.0 2.0 35 35
- 0.734057 0 2 cbr 512 ------- 2 0.0 2.0 40 40
+ 0.735 0 2 cbr 512 ------- 2 0.0 2.0 47 47
r 0.736503 0 2 cbr 512 ------- 2 0.0 2.0 36 36
- 0.739909 0 2 cbr 512 ------- 2 0.0 2.0 41 41
+ 0.74 0 2 cbr 512 ------- 2 0.0 2.0 48 48
r 0.742354 0 2 cbr 512 ------- 2 0.0 2.0 37 37
+ 0.745 0 2 cbr 512 ------- 2 0.0 2.0 49 49
- 0.74576 0 2 cbr 512 ------- 2 0.0 2.0 42 42
r 0.748206 0 2 cbr 512 ------- 2 0.0 2.0 38 38
+ 0.75 0 2 cbr 512 ------- 2 0.0 2.0 50 50
- 0.751611 0 2 cbr 512 ------- 2 0.0 2.0 43 43
r 0.754057 0 2 cbr 512 ------- 2 0.0 2.0 39 39
+ 0.755 0 2 cbr 512 ------- 2 0.0 2.0 51 51
- 0.757463 0 2 cbr 512 ------- 2 0.0 2.0 44 44
r 0.759909 0 2 cbr 512 ------- 2 0.0 2.0 40 40
+ 0.76 0 2 cbr 512 ------- 2 0.0 2.0 52 52
- 0.763314 0 2 cbr 512 ------- 2 0.0 2.0 45 45
+ 0.765 0 2 cbr 512 ------- 2 0.0 2.0 53 53
r 0.76576 0 2 cbr 512 ------- 2 0.0 2.0 41 41
- 0.769166 0 2 cbr 512 ------- 2 0.0 2.0 46 46
+ 0.77 0 2 cbr 512 ------- 2 0.0 2.0 54 54
r 0.771611 0 2 cbr 512 ------- 2 0.0 2.0 42 42
+ 0.775 0 2 cbr 512 ------- 2 0.0 2.0 55 55
- 0.775017 0 2 cbr 512 ------- 2 0.0 2.0 47 47
r 0.777463 0 2 cbr 512 ------- 2 0.0 2.0 43 43
+ 0.78 0 2 cbr 512 ------- 2 0.0 2.0 56 56
- 0.780869 0 2 cbr 512 ------- 2 0.0 2.0 48 48
r 0.783314 0 2 cbr 512 ------- 2 0.0 2.0 44 44
+ 0.785 0 2 cbr 512 ------- 2 0.0 2.0 57 57
- 0.78672 0 2 cbr 512 ------- 2 0.0 2.0 49 49
r 0.789166 0 2 cbr 512 ------- 2 0.0 2.0 45 45
+ 0.79 0 2 cbr 512 ------- 2 0.0 2.0 58 58
- 0.792571 0 2 cbr 512 ------- 2 0.0 2.0 50 50
+ 0.795 0 2 cbr 512 ------- 2 0.0 2.0 59 59
r 0.795017 0 2 cbr 512 ------- 2 0.0 2.0 46 46
- 0.798423 0 2 cbr 512 ------- 2 0.0 2.0 51 51
+ 0.8 0 2 cbr 512 ------- 2 0.0 2.0 60 60
r 0.800869 0 2 cbr 512 ------- 2 0.0 2.0 47 47
- 0.804274 0 2 cbr 512 ------- 2 0.0 2.0 52 52
+ 0.805 0 2 cbr 512 ------- 2 0.0 2.0 61 61
r 0.80672 0 2 cbr 512 ------- 2 0.0 2.0 48 48
+ 0.81 0 2 cbr 512 ------- 2 0.0 2.0 62 62
- 0.810126 0 2 cbr 512 ------- 2 0.0 2.0 53 53
r 0.812571 0 2 cbr 512 ------- 2 0.0 2.0 49 49
+ 0.815 0 2 cbr 512 ------- 2 0.0 2.0 63 63
- 0.815977 0 2 cbr 512 ------- 2 0.0 2.0 54 54
r 0.818423 0 2 cbr 512 ------- 2 0.0 2.0 50 50
+ 0.82 0 2 cbr 512 ------- 2 0.0 2.0 64 64
- 0.821829 0 2 cbr 512 ------- 2 0.0 2.0 55 55
r 0.824274 0 2 cbr 512 ------- 2 0.0 2.0 51 51
+ 0.825 0 2 cbr 512 ------- 2 0.0 2.0 65 65
- 0.82768 0 2 cbr 512 ------- 2 0.0 2.0 56 56
+ 0.83 0 2 cbr 512 ------- 2 0.0 2.0 66 66
r 0.830126 0 2 cbr 512 ------- 2 0.0 2.0 52 52
- 0.833531 0 2 cbr 512 ------- 2 0.0 2.0 57 57
+ 0.835 0 2 cbr 512 ------- 2 0.0 2.0 67 67
r 0.835977 0 2 cbr 512 ------- 2 0.0 2.0 53 53
- 0.839383 0 2 cbr 512 ------- 2 0.0 2.0 58 58
+ 0.84 0 2 cbr 512 ------- 2 0.0 2.0 68 68
r 0.841829 0 2 cbr 512 ------- 2 0.0 2.0 54 54
+ 0.845 0 2 cbr 512 ------- 2 0.0 2.0 69 69
- 0.845234 0 2 cbr 512 ------- 2 0.0 2.0 59 59
r 0.84768 0 2 cbr 512 ------- 2 0.0 2.0 55 55
+ 0.85 0 2 cbr 512 ------- 2 0.0 2.0 70 70
- 0.851086 0 2 cbr 512 ------- 2 0.0 2.0 60 60
r 0.853531 0 2 cbr 512 ------- 2 0.0 2.0 56 56
+ 0.855 0 2 cbr 512 ------- 2 0.0 2.0 71 71
- 0.856937 0 2 cbr 512 ------- 2 0.0 2.0 61 61
r 0.859383 0 2 cbr 512 ------- 2 0.0 2.0 57 57
+ 0.86 0 2 cbr 512 ------- 2 0.0 2.0 72 72
- 0.862789 0 2 cbr 512 ------- 2 0.0 2.0 62 62
+ 0.865 0 2 cbr 512 ------- 2 0.0 2.0 73 73
r 0.865234 0 2 cbr 512 ------- 2 0.0 2.0 58 58
- 0.86864 0 2 cbr 512 ------- 2 0.0 2.0 63 63
+ 0.87 0 2 cbr 512 ------- 2 0.0 2.0 74 74
r 0.871086 0 2 cbr 512 ------- 2 0.0 2.0 59 59
- 0.874491 0 2 cbr 512 ------- 2 0.0 2.0 64 64
+ 0.875 0 2 cbr 512 ------- 2 0.0 2.0 75 75
r 0.876937 0 2 cbr 512 ------- 2 0.0 2.0 60 60
+ 0.88 0 2 cbr 512 ------- 2 0.0 2.0 76 76
- 0.880343 0 2 cbr 512 ------- 2 0.0 2.0 65 65
r 0.882789 0 2 cbr 512 ------- 2 0.0 2.0 61 61
+ 0.885 0 2 cbr 512 ------- 2 0.0 2.0 77 77
- 0.886194 0 2 cbr 512 ------- 2 0.0 2.0 66 66
r 0.88864 0 2 cbr 512 ------- 2 0.0 2.0 62 62
+ 0.89 0 2 cbr 512 ------- 2 0.0 2.0 78 78
- 0.892046 0 2 cbr 512 ------- 2 0.0 2.0 67 67
r 0.894491 0 2 cbr 512 ------- 2 0.0 2.0 63 63
+ 0.895 0 2 cbr 512 ------- 2 0.0 2.0 79 79
- 0.897897 0 2 cbr 512 ------- 2 0.0 2.0 68 68
+ 0.9 0 2 cbr 512 ------- 2 0.0 2.0 80 80
r 0.900343 0 2 cbr 512 ------- 2 0.0 2.0 64 64
- 0.903749 0 2 cbr 512 ------- 2 0.0 2.0 69 69
+ 0.905 0 2 cbr 512 ------- 2 0.0 2.0 81 81
r 0.906194 0 2 cbr 512 ------- 2 0.0 2.0 65 65
- 0.9096 0 2 cbr 512 ------- 2 0.0 2.0 70 70
+ 0.91 0 2 cbr 512 ------- 2 0.0 2.0 82 82
r 0.912046 0 2 cbr 512 ------- 2 0.0 2.0 66 66
+ 0.915 0 2 cbr 512 ------- 2 0.0 2.0 83 83
- 0.915451 0 2 cbr 512 ------- 2 0.0 2.0 71 71
r 0.917897 0 2 cbr 512 ------- 2 0.0 2.0 67 67
+ 0.92 0 2 cbr 512 ------- 2 0.0 2.0 84 84
- 0.921303 0 2 cbr 512 ------- 2 0.0 2.0 72 72
r 0.923749 0 2 cbr 512 ------- 2 0.0 2.0 68 68
+ 0.925 0 2 cbr 512 ------- 2 0.0 2.0 85 85
- 0.927154 0 2 cbr 512 ------- 2 0.0 2.0 73 73
r 0.9296 0 2 cbr 512 ------- 2 0.0 2.0 69 69
+ 0.93 0 2 cbr 512 ------- 2 0.0 2.0 86 86
- 0.933006 0 2 cbr 512 ------- 2 0.0 2.0 74 74
+ 0.935 0 2 cbr 512 ------- 2 0.0 2.0 87 87
r 0.935451 0 2 cbr 512 ------- 2 0.0 2.0 70 70
- 0.938857 0 2 cbr 512 ------- 2 0.0 2.0 75 75
+ 0.94 0 2 cbr 512 ------- 2 0.0 2.0 88 88
r 0.941303 0 2 cbr 512 ------- 2 0.0 2.0 71 71
- 0.944709 0 2 cbr 512 ------- 2 0.0 2.0 76 76
+ 0.945 0 2 cbr 512 ------- 2 0.0 2.0 89 89
r 0.947154 0 2 cbr 512 ------- 2 0.0 2.0 72 72
+ 0.95 0 2 cbr 512 ------- 2 0.0 2.0 90 90
- 0.95056 0 2 cbr 512 ------- 2 0.0 2.0 77 77
r 0.953006 0 2 cbr 512 ------- 2 0.0 2.0 73 73
+ 0.955 0 2 cbr 512 ------- 2 0.0 2.0 91 91
- 0.956411 0 2 cbr 512 ------- 2 0.0 2.0 78 78
r 0.958857 0 2 cbr 512 ------- 2 0.0 2.0 74 74
+ 0.96 0 2 cbr 512 ------- 2 0.0 2.0 92 92
- 0.962263 0 2 cbr 512 ------- 2 0.0 2.0 79 79
r 0.964709 0 2 cbr 512 ------- 2 0.0 2.0 75 75
+ 0.965 0 2 cbr 512 ------- 2 0.0 2.0 93 93
- 0.968114 0 2 cbr 512 ------- 2 0.0 2.0 80 80
+ 0.97 0 2 cbr 512 ------- 2 0.0 2.0 94 94
r 0.97056 0 2 cbr 512 ------- 2 0.0 2.0 76 76
- 0.973966 0 2 cbr 512 ------- 2 0.0 2.0 81 81
+ 0.975 0 2 cbr 512 ------- 2 0.0 2.0 95 95
r 0.976411 0 2 cbr 512 ------- 2 0.0 2.0 77 77
- 0.979817 0 2 cbr 512 ------- 2 0.0 2.0 82 82
+ 0.98 0 2 cbr 512 ------- 2 0.0 2.0 96 96
r 0.982263 0 2 cbr 512 ------- 2 0.0 2.0 78 78
+ 0.985 0 2 cbr 512 ------- 2 0.0 2.0 97 97
- 0.985669 0 2 cbr 512 ------- 2 0.0 2.0 83 83
r 0.988114 0 2 cbr 512 ------- 2 0.0 2.0 79 79
+ 0.99 0 2 cbr 512 ------- 2 0.0 2.0 98 98
- 0.99152 0 2 cbr 512 ------- 2 0.0 2.0 84 84
r 0.993966 0 2 cbr 512 ------- 2 0.0 2.0 80 80
+ 0.995 0 2 cbr 512 ------- 2 0.0 2.0 99 99
- 0.997371 0 2 cbr 512 ------- 2 0.0 2.0 85 85
r 0.999817 0 2 cbr 512 ------- 2 0.0 2.0 81 81
+ 1 0 2 cbr 512 ------- 2 0.0 2.0 100 100
- 1.003223 0 2 cbr 512 ------- 2 0.0 2.0 86 86
+ 1.005 0 2 cbr 512 ------- 2 0.0 2.0 101 101
r 1.005669 0 2 cbr 512 ------- 2 0.0 2.0 82 82
- 1.009074 0 2 cbr 512 ------- 2 0.0 2.0 87 87
+ 1.01 0 2 cbr 512 ------- 2 0.0 2.0 102 102
r 1.01152 0 2 cbr 512 ------- 2 0.0 2.0 83 83
- 1.014926 0 2 cbr 512 ------- 2 0.0 2.0 88 88
+ 1.015 0 2 cbr 512 ------- 2 0.0 2.0 103 103
r 1.017371 0 2 cbr 512 ------- 2 0.0 2.0 84 84
+ 1.02 0 2 cbr 512 ------- 2 0.0 2.0 104 104
- 1.020777 0 2 cbr 512 ------- 2 0.0 2.0 89 89
r 1.023223 0 2 cbr 512 ------- 2 0.0 2.0 85 85
+ 1.025 0 2 cbr 512 ------- 2 0.0 2.0 105 105
- 1.026629 0 2 cbr 512 ------- 2 0.0 2.0 90 90
r 1.029074 0 2 cbr 512 ------- 2 0.0 2.0 86 86
+ 1.03 0 2 cbr 512 ------- 2 0.0 2.0 106 106
- 1.03248 0 2 cbr 512 ------- 2 0.0 2.0 91 91
r 1.034926 0 2 cbr 512 ------- 2 0.0 2.0 87 87
+ 1.035 0 2 cbr 512 ------- 2 0.0 2.0 107 107
- 1.038331 0 2 cbr 512 ------- 2 0.0 2.0 92 92
+ 1.04 0 2 cbr 512 ------- 2 0.0 2.0 108 108
r 1.040777 0 2 cbr 512 ------- 2 0.0 2.0 88 88
- 1.044183 0 2 cbr 512 ------- 2 0.0 2.0 93 93
+ 1.045 0 2 cbr 512 ------- 2 0.0 2.0 109 109
r 1.046629 0 2 cbr 512 ------- 2 0.0 2.0 89 89
+ 1.05 0 2 cbr 512 ------- 2 0.0 2.0 110 110
- 1.050034 0 2 cbr 512 ------- 2 0.0 2.0 94 94
r 1.05248 0 2 cbr 512 ------- 2 0.0 2.0 90 90
+ 1.055 0 2 cbr 512 ------- 2 0.0 2.0 111 111
- 1.055886 0 2 cbr 512 ------- 2 0.0 2.0 95 95
r 1.058331 0 2 cbr 512 ------- 2 0.0 2.0 91 91
+ 1.06 0 2 cbr 512 ------- 2 0.0 2.0 112 112
- 1.061737 0 2 cbr 512 ------- 2 0.0 2.0 96 96
r 1.064183 0 2 cbr 512 ------- 2 0.0 2.0 92 92
+ 1.065 0 2 cbr 512 ------- 2 0.0 2.0 113 113
- 1.067589 0 2 cbr 512 ------- 2 0.0 2.0 97 97
+ 1.07 0 2 cbr 512 ------- 2 0.0 2.0 114 114
r 1.070034 0 2 cbr 512 ------- 2 0.0 2.0 93 93
- 1.07344 0 2 cbr 512 ------- 2 0.0 2.0 98 98
+ 1.075 0 2 cbr 512 ------- 2 0.0 2.0 115 115
r 1.075886 0 2 cbr 512 ------- 2 0.0 2.0 94 94
- 1.079291 0 2 cbr 512 ------- 2 0.0 2.0 99 99
+ 1.08 0 2 cbr 512 ------- 2 0.0 2.0 116 116
r 1.081737 0 2 cbr 512 ------- 2 0.0 2.0 95 95
+ 1.085 0 2 cbr 512 ------- 2 0.0 2.0 117 117
- 1.085143 0 2 cbr 512 ------- 2 0.0 2.0 100 100
r 1.087589 0 2 cbr 512 ------- 2 0.0 2.0 96 96
+ 1.09 0 2 cbr 512 ------- 2 0.0 2.0 118 118
- 1.090994 0 2 cbr 512 ------- 2 0.0 2.0 101 101
r 1.09344 0 2 cbr 512 ------- 2 0.0 2.0 97 97
+ 1.095 0 2 cbr 512 ------- 2 0.0 2.0 119 119
- 1.096846 0 2 cbr 512 ------- 2 0.0 2.0 102 102
r 1.099291 0 2 cbr 512 ------- 2 0.0 2.0 98 98
+ 1.1 0 2 cbr 512 ------- 2 0.0 2.0 120 120
- 1.102697 0 2 cbr 512 ------- 2 0.0 2.0 103 103
+ 1.105 0 2 cbr 512 ------- 2 0.0 2.0 121 121
r 1.105143 0 2 cbr 512 ------- 2 0.0 2.0 99 99
- 1.108549 0 2 cbr 512 ------- 2 0.0 2.0 104 104
+ 1.11 0 2 cbr 512 ------- 2 0.0 2.0 122 122
r 1.110994 0 2 cbr 512 ------- 2 0.0 2.0 100 100
- 1.1144 0 2 cbr 512 ------- 2 0.0 2.0 105 105
+ 1.115 0 2 cbr 512 ------- 2 0.0 2.0 123 123
r 1.116846 0 2 cbr 512 ------- 2 0.0 2.0 101 101
+ 1.12 0 2 cbr 512 ------- 2 0.0 2.0 124 124
- 1.120251 0 2 cbr 512 ------- 2 0.0 2.0 106 106
r 1.122697 0 2 cbr 512 ------- 2 0.0 2.0 102 102
+ 1.125 0 2 cbr 512 ------- 2 0.0 2.0 125 125
- 1.126103 0 2 cbr 512 ------- 2 0.0 2.0 107 107
r 1.128549 0 2 cbr 512 ------- 2 0.0 2.0 103 103
+ 1.13 0 2 cbr 512 ------- 2 0.0 2.0 126 126
- 1.131954 0 2 cbr 512 ------- 2 0.0 2.0 108 108
r 1.1344 0 2 cbr 512 ------- 2 0.0 2.0 104 104
+ 1.135 0 2 cbr 512 ------- 2 0.0 2.0 127 127
- 1.137806 0 2 cbr 512 ------- 2 0.0 2.0 109 109
+ 1.14 0 2 cbr 512 ------- 2 0.0 2.0 128 128
r 1.140251 0 2 cbr 512 ------- 2 0.0 2.0 105 105
- 1.143657 0 2 cbr 512 ------- 2 0.0 2.0 110 110
+ 1.145 0 2 cbr 512 ------- 2 0.0 2.0 129 129
r 1.146103 0 2 cbr 512 ------- 2 0.0 2.0 106 106
- 1.149509 0 2 cbr 512 ------- 2 0.0 2.0 111 111
+ 1.15 0 2 cbr 512 ------- 2 0.0 2.0 130 130
r 1.151954 0 2 cbr 512 ------- 2 0.0 2.0 107 107
+ 1.155 0 2 cbr 512 ------- 2 0.0 2.0 131 131
- 1.15536 0 2 cbr 512 ------- 2 0.0 2.0 112 112
r 1.157806 0 2 cbr 512 ------- 2 0.0 2.0 108 108
+ 1.16 0 2 cbr 512 ------- 2 0.0 2.0 132 132
- 1.161211 0 2 cbr 512 ------- 2 0.0 2.0 113 113
r 1.163657 0 2 cbr 512 ------- 2 0.0 2.0 109 109
+ 1.165 0 2 cbr 512 ------- 2 0.0 2.0 133 133
- 1.167063 0 2 cbr 512 ------- 2 0.0 2.0 114 114
r 1.169509 0 2 cbr 512 ------- 2 0.0 2.0 110 110
+ 1.17 0 2 cbr 512 ------- 2 0.0 2.0 134 134
- 1.172914 0 2 cbr 512 ------- 2 0.0 2.0 115 115
+ 1.175 0 2 cbr 512 ------- 2 0.0 2.0 135 135
r 1.17536 0 2 cbr 512 ------- 2 0.0 2.0 111 111
- 1.178766 0 2 cbr 512 ------- 2 0.0 2.0 116 116
+ 1.18 0 2 cbr 512 ------- 2 0.0 2.0 136 136
r 1.181211 0 2 cbr 512 ------- 2 0.0 2.0 112 112
- 1.184617 0 2 cbr 512 ------- 2 0.0 2.0 117 117
+ 1.185 0 2 cbr 512 ------- 2 0.0 2.0 137 137
r 1.187063 0 2 cbr 512 ------- 2 0.0 2.0 113 113
+ 1.19 0 2 cbr 512 ------- 2 0.0 2.0 138 138
- 1.190469 0 2 cbr 512 ------- 2 0.0 2.0 118 118
r 1.192914 0 2 cbr 512 ------- 2 0.0 2.0 114 114
+ 1.195 0 2 cbr 512 ------- 2 0.0 2.0 139 139
- 1.19632 0 2 cbr 512 ------- 2 0.0 2.0 119 119
r 1.198766 0 2 cbr 512 ------- 2 0.0 2.0 115 115
+ 1.2 0 2 cbr 512 ------- 2 0.0 2.0 140 140
- 1.202171 0 2 cbr 512 ------- 2 0.0 2.0 120 120
r 1.204617 0 2 cbr 512 ------- 2 0.0 2.0 116 116
+ 1.205 0 2 cbr 512 ------- 2 0.0 2.0 141 141
- 1.208023 0 2 cbr 512 ------- 2 0.0 2.0 121 121
+ 1.21 0 2 cbr 512 ------- 2 0.0 2.0 142 142
r 1.210469 0 2 cbr 512 ------- 2 0.0 2.0 117 117
- 1.213874 0 2 cbr 512 ------- 2 0.0 2.0 122 122
+ 1.215 0 2 cbr 512 ------- 2 0.0 2.0 143 143
r 1.21632 0 2 cbr 512 ------- 2 0.0 2.0 118 118
- 1.219726 0 2 cbr 512 ------- 2 0.0 2.0 123 123
+ 1.22 0 2 cbr 512 ------- 2 0.0 2.0 144 144
r 1.222171 0 2 cbr 512 ------- 2 0.0 2.0 119 119
+ 1.225 0 2 cbr 512 ------- 2 0.0 2.0 145 145
- 1.225577 0 2 cbr 512 ------- 2 0.0 2.0 124 124
r 1.228023 0 2 cbr 512 ------- 2 0.0 2.0 120 120
+ 1.23 0 2 cbr 512 ------- 2 0.0 2.0 146 146
- 1.231429 0 2 cbr 512 ------- 2 0.0 2.0 125 125
r 1.233874 0 2 cbr 512 ------- 2 0.0 2.0 121 121
+ 1.235 0 2 cbr 512 ------- 2 0.0 2.0 147 147
- 1.23728 0 2 cbr 512 ------- 2 0.0 2.0 126 126
r 1.239726 0 2 cbr 512 ------- 2 0.0 2.0 122 122
+ 1.24 0 2 cbr 512 ------- 2 0.0 2.0 148 148
- 1.243131 0 2 cbr 512 ------- 2 0.0 2.0 127 127
+ 1.245 0 2 cbr 512 ------- 2 0.0 2.0 149 149
r 1.245577 0 2 cbr 512 ------- 2 0.0 2.0 123 123
- 1.248983 0 2 cbr 512 ------- 2 0.0 2.0 128 128
+ 1.25 0 2 cbr 512 ------- 2 0.0 2.0 150 150
r 1.251429 0 2 cbr 512 ------- 2 0.0 2.0 124 124
- 1.254834 0 2 cbr 512 ------- 2 0.0 2.0 129 129
+ 1.255 0 2 cbr 512 ------- 2 0.0 2.0 151 151
r 1.25728 0 2 cbr 512 ------- 2 0.0 2.0 125 125
+ 1.26 0 2 cbr 512 ------- 2 0.0 2.0 152 152
- 1.260686 0 2 cbr 512 ------- 2 0.0 2.0 130 130
r 1.263131 0 2 cbr 512 ------- 2 0.0 2.0 126 126
+ 1.265 0 2 cbr 512 ------- 2 0.0 2.0 153 153
- 1.266537 0 2 cbr 512 ------- 2 0.0 2.0 131 131
r 1.268983 0 2 cbr 512 ------- 2 0.0 2.0 127 127
+ 1.27 0 2 cbr 512 ------- 2 0.0 2.0 154 154
- 1.272389 0 2 cbr 512 ------- 2 0.0 2.0 132 132
r 1.274834 0 2 cbr 512 ------- 2 0.0 2.0 128 128
+ 1.275 0 2 cbr 512 ------- 2 0.0 2.0 155 155
- 1.27824 0 2 cbr 512 ------- 2 0.0 2.0 133 133
+ 1.28 0 2 cbr 512 ------- 2 0.0 2.0 156 156
r 1.280686 0 2 cbr 512 ------- 2 0.0 2.0 129 129
- 1.284091 0 2 cbr 512 ------- 2 0.0 2.0 134 134
+ 1.285 0 2 cbr 512 ------- 2 0.0 2.0 157 157
r 1.286537 0 2 cbr 512 ------- 2 0.0 2.0 130 130
- 1.289943 0 2 cbr 512 ------- 2 0.0 2.0 135 135
+ 1.29 0 2 cbr 512 ------- 2 0.0 2.0 158 158
r 1.292389 0 2 cbr 512 ------- 2 0.0 2.0 131 131
+ 1.295 0 2 cbr 512 ------- 2 0.0 2.0 159 159
- 1.295794 0 2 cbr 512 ------- 2 0.0 2.0 136 136
r 1.29824 0 2 cbr 512 ------- 2 0.0 2.0 132 132
+ 1.3 0 2 cbr 512 ------- 2 0.0 2.0 160 160
- 1.301646 0 2 cbr 512 ------- 2 0.0 2.0 137 137
r 1.304091 0 2 cbr 512 ------- 2 0.0 2.0 133 133
+ 1.305 0 2 cbr 512 ------- 2 0.0 2.0 161 161
- 1.307497 0 2 cbr 512 ------- 2 0.0 2.0 138 138
r 1.309943 0 2 cbr 512 ------- 2 0.0 2.0 134 134
+ 1.31 0 2 cbr 512 ------- 2 0.0 2.0 162 162
- 1.313349 0 2 cbr 512 ------- 2 0.0 2.0 139 139
+ 1.315 0 2 cbr 512 ------- 2 0.0 2.0 163 163
r 1.315794 0 2 cbr 512 ------- 2 0.0 2.0 135 135
- 1.3192 0 2 cbr 512 ------- 2 0.0 2.0 140 140
+ 1.32 0 2 cbr 512 ------- 2 0.0 2.0 164 164
r 1.321646 0 2 cbr 512 ------- 2 0.0 2.0 136 136
+ 1.325 0 2 cbr 512 ------- 2 0.0 2.0 165 165
- 1.325051 0 2 cbr 512 ------- 2 0.0 2.0 141 141
r 1.327497 0 2 cbr 512 ------- 2 0.0 2.0 137 137
+ 1.33 0 2 cbr 512 ------- 2 0.0 2.0 166 166
- 1.330903 0 2 cbr 512 ------- 2 0.0 2.0 142 142
r 1.333349 0 2 cbr 512 ------- 2 0.0 2.0 138 138
+ 1.335 0 2 cbr 512 ------- 2 0.0 2.0 167 167
- 1.336754 0 2 cbr 512 ------- 2 0.0 2.0 143 143
r 1.3392 0 2 cbr 512 ------- 2 0.0 2.0 139 139
+ 1.34 0 2 cbr 512 ------- 2 0.0 2.0 168 168
- 1.342606 0 2 cbr 512 ------- 2 0.0 2.0 144 144
+ 1.345 0 2 cbr 512 ------- 2 0.0 2.0 169 169
r 1.345051 0 2 cbr 512 ------- 2 0.0 2.0 140 140
- 1.348457 0 2 cbr 512 ------- 2 0.0 2.0 145 145
+ 1.35 0 2 cbr 512 ------- 2 0.0 2.0 170 170
r 1.350903 0 2 cbr 512 ------- 2 0.0 2.0 141 141
- 1.354309 0 2 cbr 512 ------- 2 0.0 2.0 146 146
+ 1.355 0 2 cbr 512 ------- 2 0.0 2.0 171 171
r 1.356754 0 2 cbr 512 ------- 2 0.0 2.0 142 142
+ 1.36 0 2 cbr 512 ------- 2 0.0 2.0 172 172
- 1.36016 0 2 cbr 512 ------- 2 0.0 2.0 147 147
r 1.362606 0 2 cbr 512 ------- 2 0.0 2.0 143 143
+ 1.365 0 2 cbr 512 ------- 2 0.0 2.0 173 173
- 1.366011 0 2 cbr 512 ------- 2 0.0 2.0 148 148
r 1.368457 0 2 cbr 512 ------- 2 0.0 2.0 144 144
+ 1.37 0 2 cbr 512 ------- 2 0.0 2.0 174 174
- 1.371863 0 2 cbr 512 ------- 2 0.0 2.0 149 149
r 1.374309 0 2 cbr 512 ------- 2 0.0 2.0 145 145
+ 1.375 0 2 cbr 512 ------- 2 0.0 2.0 175 175
- 1.377714 0 2 cbr 512 ------- 2 0.0 2.0 150 150
+ 1.38 0 2 cbr 512 ------- 2 0.0 2.0 176 176
r 1.38016 0 2 cbr 512 ------- 2 0.0 2.0 146 146
- 1.383566 0 2 cbr 512 ------- 2 0.0 2.0 151 151
+ 1.385 0 2 cbr 512 ------- 2 0.0 2.0 177 177
r 1.386011 0 2 cbr 512 ------- 2 0.0 2.0 147 147
- 1.389417 0 2 cbr 512 ------- 2 0.0 2.0 152 152
+ 1.39 0 2 cbr 512 ------- 2 0.0 2.0 178 178
r 1.391863 0 2 cbr 512 ------- 2 0.0 2.0 148 148
+ 1.395 0 2 cbr 512 ------- 2 0.0 2.0 179 179
- 1.395269 0 2 cbr 512 ------- 2 0.0 2.0 153 153
r 1.397714 0 2 cbr 512 ------- 2 0.0 2.0 149 149
+ 1.4 0 2 cbr 512 ------- 2 0.0 2.0 180 180
- 1.40112 0 2 cbr 512 ------- 2 0.0 2.0 154 154
r 1.403566 0 2 cbr 512 ------- 2 0.0 2.0 150 150
+ 1.405 0 2 cbr 512 ------- 2 0.0 2.0 181 181
- 1.406971 0 2 cbr 512 ------- 2 0.0 2.0 155 155
r 1.409417 0 2 cbr 512 ------- 2 0.0 2.0 151 151
+ 1.41 0 2 cbr 512 ------- 2 0.0 2.0 182 182
- 1.412823 0 2 cbr 512 ------- 2 0.0 2.0 156 156
+ 1.415 0 2 cbr 512 ------- 2 0.0 2.0 183 183
r 1.415269 0 2 cbr 512 ------- 2 0.0 2.0 152 152
- 1.418674 0 2 cbr 512 ------- 2 0.0 2.0 157 157
+ 1.42 0 2 cbr 512 ------- 2 0.0 2.0 184 184
r 1.42112 0 2 cbr 512 ------- 2 0.0 2.0 153 153
- 1.424526 0 2 cbr 512 ------- 2 0.0 2.0 158 158
+ 1.425 0 2 cbr 512 ------- 2 0.0 2.0 185 185
r 1.426971 0 2 cbr 512 ------- 2 0.0 2.0 154 154
+ 1.43 0 2 cbr 512 ------- 2 0.0 2.0 186 186
- 1.430377 0 2 cbr 512 ------- 2 0.0 2.0 159 159
r 1.432823 0 2 cbr 512 ------- 2 0.0 2.0 155 155
+ 1.435 0 2 cbr 512 ------- 2 0.0 2.0 187 187
- 1.436229 0 2 cbr 512 ------- 2 0.0 2.0 160 160
r 1.438674 0 2 cbr 512 ------- 2 0.0 2.0 156 156
+ 1.44 0 2 cbr 512 ------- 2 0.0 2.0 188 188
- 1.44208 0 2 cbr 512 ------- 2 0.0 2.0 161 161
r 1.444526 0 2 cbr 512 ------- 2 0.0 2.0 157 157
+ 1.445 0 2 cbr 512 ------- 2 0.0 2.0 189 189
- 1.447931 0 2 cbr 512 ------- 2 0.0 2.0 162 162
+ 1.45 0 2 cbr 512 ------- 2 0.0 2.0 190 190
r 1.450377 0 2 cbr 512 ------- 2 0.0 2.0 158 158
- 1.453783 0 2 cbr 512 ------- 2 0.0 2.0 163 163
+ 1.455 0 2 cbr 512 ------- 2 0.0 2.0 191 191
r 1.456229 0 2 cbr 512 ------- 2 0.0 2.0 159 159
- 1.459634 0 2 cbr 512 ------- 2 0.0 2.0 164 164
+ 1.46 0 2 cbr 512 ------- 2 0.0 2.0 192 192
r 1.46208 0 2 cbr 512 ------- 2 0.0 2.0 160 160
+ 1.465 0 2 cbr 512 ------- 2 0.0 2.0 193 193
- 1.465486 0 2 cbr 512 ------- 2 0.0 2.0 165 165
r 1.467931 0 2 cbr 512 ------- 2 0.0 2.0 161 161
+ 1.47 0 2 cbr 512 ------- 2 0.0 2.0 194 194
- 1.471337 0 2 cbr 512 ------- 2 0.0 2.0 166 166
r 1.473783 0 2 cbr 512 ------- 2 0.0 2.0 162 162
+ 1.475 0 2 cbr 512 ------- 2 0.0 2.0 195 195
- 1.477189 0 2 cbr 512 ------- 2 0.0 2.0 167 167
r 1.479634 0 2 cbr 512 ------- 2 0.0 2.0 163 163
+ 1.48 0 2 cbr 512 ------- 2 0.0 2.0 196 196
- 1.48304 0 2 cbr 512 ------- 2 0.0 2.0 168 168
+ 1.485 0 2 cbr 512 ------- 2 0.0 2.0 197 197
r 1.485486 0 2 cbr 512 ------- 2 0.0 2.0 164 164
- 1.488891 0 2 cbr 512 ------- 2 0.0 2.0 169 169
+ 1.49 0 2 cbr 512 ------- 2 0.0 2.0 198 198
r 1.491337 0 2 cbr 512 ------- 2 0.0 2.0 165 165
- 1.494743 0 2 cbr 512 ------- 2 0.0 2.0 170 170
+ 1.495 0 2 cbr 512 ------- 2 0.0 2.0 199 199
r 1.497189 0 2 cbr 512 ------- 2 0.0 2.0 166 166
+ 1.5 0 2 cbr 512 ------- 2 0.0 2.0 200 200
- 1.500594 0 2 cbr 512 ------- 2 0.0 2.0 171 171
r 1.50304 0 2 cbr 512 ------- 2 0.0 2.0 167 167
+ 1.505 0 2 cbr 512 ------- 2 0.0 2.0 201 201
- 1.506446 0 2 cbr 512 ------- 2 0.0 2.0 172 172
r 1.508891 0 2 cbr 512 ------- 2 0.0 2.0 168 168
+ 1.51 0 2 cbr 512 ------- 2 0.0 2.0 202 202
- 1.512297 0 2 cbr 512 ------- 2 0.0 2.0 173 173
r 1.514743 0 2 cbr 512 ------- 2 0.0 2.0 169 169
+ 1.515 0 2 cbr 512 ------- 2 0.0 2.0 203 203
- 1.518149 0 2 cbr 512 ------- 2 0.0 2.0 174 174
+ 1.52 0 2 cbr 512 ------- 2 0.0 2.0 204 204
r 1.520594 0 2 cbr 512 ------- 2 0.0 2.0 170 170
- 1.524 0 2 cbr 512 ------- 2 0.0 2.0 175 175
+ 1.525 0 2 cbr 512 ------- 2 0.0 2.0 205 205
r 1.526446 0 2 cbr 512 ------- 2 0.0 2.0 171 171
- 1.529851 0 2 cbr 512 ------- 2 0.0 2.0 176 176
+ 1.53 0 2 cbr 512 ------- 2 0.0 2.0 206 206
r 1.532297 0 2 cbr 512 ------- 2 0.0 2.0 172 172
+ 1.535 0 2 cbr 512 ------- 2 0.0 2.0 207 207
- 1.535703 0 2 cbr 512 ------- 2 0.0 2.0 177 177
r 1.538149 0 2 cbr 512 ------- 2 0.0 2.0 173 173
+ 1.54 0 2 cbr 512 ------- 2 0.0 2.0 208 208
- 1.541554 0 2 cbr 512 ------- 2 0.0 2.0 178 178
r 1.544 0 2 cbr 512 ------- 2 0.0 2.0 174 174
+ 1.545 0 2 cbr 512 ------- 2 0.0 2.0 209 209
- 1.547406 0 2 cbr 512 ------- 2 0.0 2.0 179 179
r 1.549851 0 2 cbr 512 ------- 2 0.0 2.0 175 175
+ 1.55 0 2 cbr 512 ------- 2 0.0 2.0 210 210
- 1.553257 0 2 cbr 512 ------- 2 0.0 2.0 180 180
+ 1.555 0 2 cbr 512 ------- 2 0.0 2.0 211 211
r 1.555703 0 2 cbr 512 ------- 2 0.0 2.0 176 176
- 1.559109 0 2 cbr 512 ------- 2 0.0 2.0 181 181
+ 1.56 0 2 cbr 512 ------- 2 0.0 2.0 212 212
r 1.561554 0 2 cbr 512 ------- 2 0.0 2.0 177 177
- 1.56496 0 2 cbr 512 ------- 2 0.0 2.0 182 182
+ 1.565 0 2 cbr 512 ------- 2 0.0 2.0 213 213
r 1.567406 0 2 cbr 512 ------- 2 0.0 2.0 178 178
+ 1.57 0 2 cbr 512 ------- 2 0.0 2.0 214 214
- 1.570811 0 2 cbr 512 ------- 2 0.0 2.0 183 183
r 1.573257 0 2 cbr 512 ------- 2 0.0 2.0 179 179
+ 1.575 0 2 cbr 512 ------- 2 0.0 2.0 215 215
- 1.576663 0 2 cbr 512 ------- 2 0.0 2.0 184 184
r 1.579109 0 2 cbr 512 ------- 2 0.0 2.0 180 180
+ 1.58 0 2 cbr 512 ------- 2 0.0 2.0 216 216
- 1.582514 0 2 cbr 512 ------- 2 0.0 2.0 185 185
r 1.58496 0 2 cbr 512 ------- 2 0.0 2.0 181 181
+ 1.585 0 2 cbr 512 ------- 2 0.0 2.0 217 217
- 1.588366 0 2 cbr 512 ------- 2 0.0 2.0 186 186
+ 1.59 0 2 cbr 512 ------- 2 0.0 2.0 218 218
r 1.590811 0 2 cbr 512 ------- 2 0.0 2.0 182 182
- 1.594217 0 2 cbr 512 ------- 2 0.0 2.0 187 187
+ 1.595 0 2 cbr 512 ------- 2 0.0 2.0 219 219
r 1.596663 0 2 cbr 512 ------- 2 0.0 2.0 183 183
+ 1.6 0 2 cbr 512 ------- 2 0.0 2.0 220 220
- 1.600069 0 2 cbr 512 ------- 2 0.0 2.0 188 188
r 1.602514 0 2 cbr 512 ------- 2 0.0 2.0 184 184
+ 1.605 0 2 cbr 512 ------- 2 0.0 2.0 221 221
- 1.60592 0 2 cbr 512 ------- 2 0.0 2.0 189 189
r 1.608366 0 2 cbr 512 ------- 2 0.0 2.0 185 185
+ 1.61 0 2 cbr 512 ------- 2 0.0 2.0 222 222
- 1.611771 0 2 cbr 512 ------- 2 0.0 2.0 190 190
r 1.614217 0 2 cbr 512 ------- 2 0.0 2.0 186 186
+ 1.615 0 2 cbr 512 ------- 2 0.0 2.0 223 223
- 1.617623 0 2 cbr 512 ------- 2 0.0 2.0 191 191
+ 1.62 0 2 cbr 512 ------- 2 0.0 2.0 224 224
r 1.620069 0 2 cbr 512 ------- 2 0.0 2.0 187 187
- 1.623474 0 2 cbr 512 ------- 2 0.0 2.0 192 192
+ 1.625 0 2 cbr 512 ------- 2 0.0 2.0 225 225
r 1.62592 0 2 cbr 512 ------- 2 0.0 2.0 188 188
- 1.629326 0 2 cbr 512 ------- 2 0.0 2.0 193 193
+ 1.63 0 2 cbr 512 ------- 2 0.0 2.0 226 226
r 1.631771 0 2 cbr 512 ------- 2 0.0 2.0 189 189
+ 1.635 0 2 cbr 512 ------- 2 0.0 2.0 227 227
- 1.635177 0 2 cbr 512 ------- 2 0.0 2.0 194 194
r 1.637623 0 2 cbr 512 ------- 2 0.0 2.0 190 190
+ 1.64 0 2 cbr 512 ------- 2 0.0 2.0 228 228
- 1.641029 0 2 cbr 512 ------- 2 0.0 2.0 195 195
r 1.643474 0 2 cbr 512 ------- 2 0.0 2.0 191 191
+ 1.645 0 2 cbr 512 ------- 2 0.0 2.0 229 229
- 1.64688 0 2 cbr 512 ------- 2 0.0 2.0 196 196
r 1.649326 0 2 cbr 512 ------- 2 0.0 2.0 192 192
+ 1.65 0 2 cbr 512 ------- 2 0.0 2.0 230 230
- 1.652731 0 2 cbr 512 ------- 2 0.0 2.0 197 197
+ 1.655 0 2 cbr 512 ------- 2 0.0 2.0 231 231
r 1.655177 0 2 cbr 512 ------- 2 0.0 2.0 193 193
- 1.658583 0 2 cbr 512 ------- 2 0.0 2.0 198 198
+ 1.66 0 2 cbr 512 ------- 2 0.0 2.0 232 232
r 1.661029 0 2 cbr 512 ------- 2 0.0 2.0 194 194
- 1.664434 0 2 cbr 512 ------- 2 0.0 2.0 199 199
+ 1.665 0 2 cbr 512 ------- 2 0.0 2.0 233 233
r 1.66688 0 2 cbr 512 ------- 2 0.0 2.0 195 195
+ 1.67 0 2 cbr 512 ------- 2 0.0 2.0 234 234
- 1.670286 0 2 cbr 512 ------- 2 0.0 2.0 200 200
r 1.672731 0 2 cbr 512 ------- 2 0.0 2.0 196 196
+ 1.675 0 2 cbr 512 ------- 2 0.0 2.0 235 235
- 1.676137 0 2 cbr 512 ------- 2 0.0 2.0 201 201
r 1.678583 0 2 cbr 512 ------- 2 0.0 2.0 197 197
+ 1.68 0 2 cbr 512 ------- 2 0.0 2.0 236 236
- 1.681989 0 2 cbr 512 ------- 2 0.0 2.0 202 202
r 1.684434 0 2 cbr 512 ------- 2 0.0 2.0 198 198
+ 1.685 0 2 cbr 512 ------- 2 0.0 2.0 237 237
- 1.68784 0 2 cbr 512 ------- 2 0.0 2.0 203 203
+ 1.69 0 2 cbr 512 ------- 2 0.0 2.0 238 238
r 1.690286 0 2 cbr 512 ------- 2 0.0 2.0 199 199
- 1.693691 0 2 cbr 512 ------- 2 0.0 2.0 204 204