V -t * -v 1.0a5 -a 0
A -t * -n 1 -p 0 -o 0x7fffffff -c 30 -a 1
A -t * -h 1 -m 1073741823 -s 0
c -t * -i 2 -n blue
n -t * -a 0 -s 0 -S UP -v hexagon -c blue -i blue
n -t * -a 1 -s 1 -S UP -v circle -c black -i black
n -t * -a 2 -s 2 -S UP -v square -c blue -i blue
l -t * -s 1 -d 2 -S UP -r 700000 -D 0.02 -c black
l -t * -s 0 -d 1 -S UP -r 700000 -D 0.02 -c black -o right-down
l -t * -s 0 -d 2 -S UP -r 700000 -D 0.02 -c black -o left-bottom
+ -t 0.5 -s 0 -d 2 -p cbr -e 512 -c 2 -i 0 -a 2 -x {0.0 2.0 0 ------- null}
- -t 0.5 -s 0 -d 2 -p cbr -e 512 -c 2 -i 0 -a 2 -x {0.0 2.0 0 ------- null}
h -t 0.5 -s 0 -d 2 -p cbr -e 512 -c 2 -i 0 -a 2 -x {0.0 2.0 -1 ------- null}
+ -t 0.505 -s 0 -d 2 -p cbr -e 512 -c 2 -i 1 -a 2 -x {0.0 2.0 1 ------- null}
- -t 0.505851428571429 -s 0 -d 2 -p cbr -e 512 -c 2 -i 1 -a 2 -x {0.0 2.0 1 ------- null}
h -t 0.505851428571429 -s 0 -d 2 -p cbr -e 512 -c 2 -i 1 -a 2 -x {0.0 2.0 -1 ------- null}
+ -t 0.51 -s 0 -d 2 -p cbr -e 512 -c 2 -i 2 -a 2 -x {0.0 2.0 2 ------- null}
- -t 0.511702857142857 -s 0 -d 2 -p cbr -e 512 -c 2 -i 2 -a 2 -x {0.0 2.0 2 ------- null}
h -t 0.511702857142857 -s 0 -d 2 -p cbr -e 512 -c 2 -i 2 -a 2 -x {0.0 2.0 -1 ------- null}
+ -t 0.515 -s 0 -d 2 -p cbr -e 512 -c 2 -i 3 -a 2 -x {0.0 2.0 3 ------- null}
- -t 0.517554285714286 -s 0 -d 2 -p cbr -e 512 -c 2 -i 3 -a 2 -x {0.0 2.0 3 ------- null}
h -t 0.517554285714286 -s 0 -d 2 -p cbr -e 512 -c 2 -i 3 -a 2 -x {0.0 2.0 -1 ------- null}
+ -t 0.52 -s 0 -d 2 -p cbr -e 512 -c 2 -i 4 -a 2 -x {0.0 2.0 4 ------- null}
- -t 0.523405714285714 -s 0 -d 2 -p cbr -e 512 -c 2 -i 4 -a 2 -x {0.0 2.0 4 ------- null}
h -t 0.523405714285714 -s 0 -d 2 -p cbr -e 512 -c 2 -i 4 -a 2 -x {0.0 2.0 -1 ------- null}
+ -t 0.525 -s 0 -d 2 -p cbr -e 512 -c 2 -i 5 -a 2 -x {0.0 2.0 5 ------- null}
r -t 0.525851428571429 -s 0 -d 2 -p cbr -e 512 -c 2 -i 0 -a 2 -x {0.0 2.0 0 ------- null}
- -t 0.529257142857143 -s 0 -d 2 -p cbr -e 512 -c 2 -i 5 -a 2 -x {0.0 2.0 5 ------- null}
h -t 0.529257142857143 -s 0 -d 2 -p cbr -e 512 -c 2 -i 5 -a 2 -x {0.0 2.0 -1 ------- null}
+ -t 0.53 -s 0 -d 2 -p cbr -e 512 -c 2 -i 6 -a 2 -x {0.0 2.0 6 ------- null}
r -t 0.531702857142857 -s 0 -d 2 -p cbr -e 512 -c 2 -i 1 -a 2 -x {0.0 2.0 1 ------- null}
+ -t 0.535 -s 0 -d 2 -p cbr -e 512 -c 2 -i 7 -a 2 -x {0.0 2.0 7 ------- null}
- -t 0.535108571428572 -s 0 -d 2 -p cbr -e 512 -c 2 -i 6 -a 2 -x {0.0 2.0 6 ------- null}
h -t 0.535108571428572 -s 0 -d 2 -p cbr -e 512 -c 2 -i 6 -a 2 -x {0.0 2.0 -1 ------- null}
r -t 0.537554285714286 -s 0 -d 2 -p cbr -e 512 -c 2 -i 2 -a 2 -x {0.0 2.0 2 ------- null}
+ -t 0.54 -s 0 -d 2 -p cbr -e 512 -c 2 -i 8 -a 2 -x {0.0 2.0 8 ------- null}
- -t 0.54096 -s 0 -d 2 -p cbr -e 512 -c 2 -i 7 -a 2 -x {0.0 2.0 7 ------- null}
h -t 0.54096 -s 0 -d 2 -p cbr -e 512 -c 2 -i 7 -a 2 -x {0.0 2.0 -1 ------- null}
r -t 0.543405714285714 -s 0 -d 2 -p cbr -e 512 -c 2 -i 3 -a 2 -x {0.0 2.0 3 ------- null}
+ -t 0.545 -s 0 -d 2 -p cbr -e 512 -c 2 -i 9 -a 2 -x {0.0 2.0 9 ------- null}
- -t 0.546811428571429 -s 0 -d 2 -p cbr -e 512 -c 2 -i 8 -a 2 -x {0.0 2.0 8 ------- null}
h -t 0.546811428571429 -s 0 -d 2 -p cbr -e 512 -c 2 -i 8 -a 2 -x {0.0 2.0 -1 ------- null}
r -t 0.549257142857143 -s 0 -d 2 -p cbr -e 512 -c 2 -i 4 -a 2 -x {0.0 2.0 4 ------- null}
+ -t 0.55 -s 0 -d 2 -p cbr -e 512 -c 2 -i 10 -a 2 -x {0.0 2.0 10 ------- null}
- -t 0.552662857142858 -s 0 -d 2 -p cbr -e 512 -c 2 -i 9 -a 2 -x {0.0 2.0 9 ------- null}
h -t 0.552662857142858 -s 0 -d 2 -p cbr -e 512 -c 2 -i 9 -a 2 -x {0.0 2.0 -1 ------- null}
+ -t 0.555 -s 0 -d 2 -p cbr -e 512 -c 2 -i 11 -a 2 -x {0.0 2.0 11 ------- null}
r -t 0.555108571428572 -s 0 -d 2 -p cbr -e 512 -c 2 -i 5 -a 2 -x {0.0 2.0 5 ------- null}
- -t 0.558514285714286 -s 0 -d 2 -p cbr -e 512 -c 2 -i 10 -a 2 -x {0.0 2.0 10 ------- null}
h -t 0.558514285714286 -s 0 -d 2 -p cbr -e 512 -c 2 -i 10 -a 2 -x {0.0 2.0 -1 ------- null}
+ -t 0.56 -s 0 -d 2 -p cbr -e 512 -c 2 -i 12 -a 2 -x {0.0 2.0 12 ------- null}
r -t 0.56096 -s 0 -d 2 -p cbr -e 512 -c 2 -i 6 -a 2 -x {0.0 2.0 6 ------- null}
- -t 0.564365714285715 -s 0 -d 2 -p cbr -e 512 -c 2 -i 11 -a 2 -x {0.0 2.0 11 ------- null}
h -t 0.564365714285715 -s 0 -d 2 -p cbr -e 512 -c 2 -i 11 -a 2 -x {0.0 2.0 -1 ------- null}
+ -t 0.565 -s 0 -d 2 -p cbr -e 512 -c 2 -i 13 -a 2 -x {0.0 2.0 13 ------- null}
r -t 0.566811428571429 -s 0 -d 2 -p cbr -e 512 -c 2 -i 7 -a 2 -x {0.0 2.0 7 ------- null}
+ -t 0.57 -s 0 -d 2 -p cbr -e 512 -c 2 -i 14 -a 2 -x {0.0 2.0 14 ------- null}
- -t 0.570217142857143 -s 0 -d 2 -p cbr -e 512 -c 2 -i 12 -a 2 -x {0.0 2.0 12 ------- null}
h -t 0.570217142857143 -s 0 -d 2 -p cbr -e 512 -c 2 -i 12 -a 2 -x {0.0 2.0 -1 ------- null}
r -t 0.572662857142857 -s 0 -d 2 -p cbr -e 512 -c 2 -i 8 -a 2 -x {0.0 2.0 8 ------- null}
+ -t 0.575 -s 0 -d 2 -p cbr -e 512 -c 2 -i 15 -a 2 -x {0.0 2.0 15 ------- null}
- -t 0.576068571428572 -s 0 -d 2 -p cbr -e 512 -c 2 -i 13 -a 2 -x {0.0 2.0 13 ------- null}
h -t 0.576068571428572 -s 0 -d 2 -p cbr -e 512 -c 2 -i 13 -a 2 -x {0.0 2.0 -1 ------- null}
r -t 0.578514285714286 -s 0 -d 2 -p cbr -e 512 -c 2 -i 9 -a 2 -x {0.0 2.0 9 ------- null}
+ -t 0.58 -s 0 -d 2 -p cbr -e 512 -c 2 -i 16 -a 2 -x {0.0 2.0 16 ------- null}
- -t 0.581920000000001 -s 0 -d 2 -p cbr -e 512 -c 2 -i 14 -a 2 -x {0.0 2.0 14 ------- null}
h -t 0.581920000000001 -s 0 -d 2 -p cbr -e 512 -c 2 -i 14 -a 2 -x {0.0 2.0 -1 ------- null}
r -t 0.584365714285715 -s 0 -d 2 -p cbr -e 512 -c 2 -i 10 -a 2 -x {0.0 2.0 10 ------- null}
+ -t 0.585 -s 0 -d 2 -p cbr -e 512 -c 2 -i 17 -a 2 -x {0.0 2.0 17 ------- null}
- -t 0.587771428571429 -s 0 -d 2 -p cbr -e 512 -c 2 -i 15 -a 2 -x {0.0 2.0 15 ------- null}
h -t 0.587771428571429 -s 0 -d 2 -p cbr -e 512 -c 2 -i 15 -a 2 -x {0.0 2.0 -1 ------- null}
+ -t 0.59 -s 0 -d 2 -p cbr -e 512 -c 2 -i 18 -a 2 -x {0.0 2.0 18 ------- null}
r -t 0.590217142857143 -s 0 -d 2 -p cbr -e 512 -c 2 -i 11 -a 2 -x {0.0 2.0 11 ------- null}
- -t 0.593622857142858 -s 0 -d 2 -p cbr -e 512 -c 2 -i 16 -a 2 -x {0.0 2.0 16 ------- null}
h -t 0.593622857142858 -s 0 -d 2 -p cbr -e 512 -c 2 -i 16 -a 2 -x {0.0 2.0 -1 ------- null}
+ -t 0.595 -s 0 -d 2 -p cbr -e 512 -c 2 -i 19 -a 2 -x {0.0 2.0 19 ------- null}
r -t 0.596068571428572 -s 0 -d 2 -p cbr -e 512 -c 2 -i 12 -a 2 -x {0.0 2.0 12 ------- null}
- -t 0.599474285714287 -s 0 -d 2 -p cbr -e 512 -c 2 -i 17 -a 2 -x {0.0 2.0 17 ------- null}
h -t 0.599474285714287 -s 0 -d 2 -p cbr -e 512 -c 2 -i 17 -a 2 -x {0.0 2.0 -1 ------- null}
+ -t 0.6 -s 0 -d 2 -p cbr -e 512 -c 2 -i 20 -a 2 -x {0.0 2.0 20 ------- null}
r -t 0.601920000000001 -s 0 -d 2 -p cbr -e 512 -c 2 -i 13 -a 2 -x {0.0 2.0 13 ------- null}
+ -t 0.605 -s 0 -d 2 -p cbr -e 512 -c 2 -i 21 -a 2 -x {0.0 2.0 21 ------- null}
- -t 0.605325714285715 -s 0 -d 2 -p cbr -e 512 -c 2 -i 18 -a 2 -x {0.0 2.0 18 ------- null}
h -t 0.605325714285715 -s 0 -d 2 -p cbr -e 512 -c 2 -i 18 -a 2 -x {0.0 2.0 -1 ------- null}
r -t 0.607771428571429 -s 0 -d 2 -p cbr -e 512 -c 2 -i 14 -a 2 -x {0.0 2.0 14 ------- null}
+ -t 0.61 -s 0 -d 2 -p cbr -e 512 -c 2 -i 22 -a 2 -x {0.0 2.0 22 ------- null}
- -t 0.611177142857144 -s 0 -d 2 -p cbr -e 512 -c 2 -i 19 -a 2 -x {0.0 2.0 19 ------- null}
h -t 0.611177142857144 -s 0 -d 2 -p cbr -e 512 -c 2 -i 19 -a 2 -x {0.0 2.0 -1 ------- null}
r -t 0.613622857142858 -s 0 -d 2 -p cbr -e 512 -c 2 -i 15 -a 2 -x {0.0 2.0 15 ------- null}
+ -t 0.615 -s 0 -d 2 -p cbr -e 512 -c 2 -i 23 -a 2 -x {0.0 2.0 23 ------- null}
- -t 0.617028571428572 -s 0 -d 2 -p cbr -e 512 -c 2 -i 20 -a 2 -x {0.0 2.0 20 ------- null}
h -t 0.617028571428572 -s 0 -d 2 -p cbr -e 512 -c 2 -i 20 -a 2 -x {0.0 2.0 -1 ------- null}
r -t 0.619474285714286 -s 0 -d 2 -p cbr -e 512 -c 2 -i 16 -a 2 -x {0.0 2.0 16 ------- null}
+ -t 0.62 -s 0 -d 2 -p cbr -e 512 -c 2 -i 24 -a 2 -x {0.0 2.0 24 ------- null}
- -t 0.622880000000001 -s 0 -d 2 -p cbr -e 512 -c 2 -i 21 -a 2 -x {0.0 2.0 21 ------- null}
h -t 0.622880000000001 -s 0 -d 2 -p cbr -e 512 -c 2 -i 21 -a 2 -x {0.0 2.0 -1 ------- null}
+ -t 0.625 -s 0 -d 2 -p cbr -e 512 -c 2 -i 25 -a 2 -x {0.0 2.0 25 ------- null}
r -t 0.625325714285715 -s 0 -d 2 -p cbr -e 512 -c 2 -i 17 -a 2 -x {0.0 2.0 17 ------- null}
- -t 0.62873142857143 -s 0 -d 2 -p cbr -e 512 -c 2 -i 22 -a 2 -x {0.0 2.0 22 ------- null}
h -t 0.62873142857143 -s 0 -d 2 -p cbr -e 512 -c 2 -i 22 -a 2 -x {0.0 2.0 -1 ------- null}
+ -t 0.63 -s 0 -d 2 -p cbr -e 512 -c 2 -i 26 -a 2 -x {0.0 2.0 26 ------- null}
r -t 0.631177142857144 -s 0 -d 2 -p cbr -e 512 -c 2 -i 18 -a 2 -x {0.0 2.0 18 ------- null}
- -t 0.634582857142858 -s 0 -d 2 -p cbr -e 512 -c 2 -i 23 -a 2 -x {0.0 2.0 23 ------- null}
h -t 0.634582857142858 -s 0 -d 2 -p cbr -e 512 -c 2 -i 23 -a 2 -x {0.0 2.0 -1 ------- null}
+ -t 0.635 -s 0 -d 2 -p cbr -e 512 -c 2 -i 27 -a 2 -x {0.0 2.0 27 ------- null}
r -t 0.637028571428572 -s 0 -d 2 -p cbr -e 512 -c 2 -i 19 -a 2 -x {0.0 2.0 19 ------- null}
+ -t 0.64 -s 0 -d 2 -p cbr -e 512 -c 2 -i 28 -a 2 -x {0.0 2.0 28 ------- null}
- -t 0.640434285714287 -s 0 -d 2 -p cbr -e 512 -c 2 -i 24 -a 2 -x {0.0 2.0 24 ------- null}
h -t 0.640434285714287 -s 0 -d 2 -p cbr -e 512 -c 2 -i 24 -a 2 -x {0.0 2.0 -1 ------- null}
r -t 0.642880000000001 -s 0 -d 2 -p cbr -e 512 -c 2 -i 20 -a 2 -x {0.0 2.0 20 ------- null}
+ -t 0.645 -s 0 -d 2 -p cbr -e 512 -c 2 -i 29 -a 2 -x {0.0 2.0 29 ------- null}
- -t 0.646285714285715 -s 0 -d 2 -p cbr -e 512 -c 2 -i 25 -a 2 -x {0.0 2.0 25 ------- null}
h -t 0.646285714285715 -s 0 -d 2 -p cbr -e 512 -c 2 -i 25 -a 2 -x {0.0 2.0 -1 ------- null}
r -t 0.64873142857143 -s 0 -d 2 -p cbr -e 512 -c 2 -i 21 -a 2 -x {0.0 2.0 21 ------- null}
+ -t 0.65 -s 0 -d 2 -p cbr -e 512 -c 2 -i 30 -a 2 -x {0.0 2.0 30 ------- null}
- -t 0.652137142857144 -s 0 -d 2 -p cbr -e 512 -c 2 -i 26 -a 2 -x {0.0 2.0 26 ------- null}
h -t 0.652137142857144 -s 0 -d 2 -p cbr -e 512 -c 2 -i 26 -a 2 -x {0.0 2.0 -1 ------- null}
r -t 0.654582857142858 -s 0 -d 2 -p cbr -e 512 -c 2 -i 22 -a 2 -x {0.0 2.0 22 ------- null}
+ -t 0.655 -s 0 -d 2 -p cbr -e 512 -c 2 -i 31 -a 2 -x {0.0 2.0 31 ------- null}
- -t 0.657988571428573 -s 0 -d 2 -p cbr -e 512 -c 2 -i 27 -a 2 -x {0.0 2.0 27 ------- null}
h -t 0.657988571428573 -s 0 -d 2 -p cbr -e 512 -c 2 -i 27 -a 2 -x {0.0 2.0 -1 ------- null}
+ -t 0.66 -s 0 -d 2 -p cbr -e 512 -c 2 -i 32 -a 2 -x {0.0 2.0 32 ------- null}
r -t 0.660434285714287 -s 0 -d 2 -p cbr -e 512 -c 2 -i 23 -a 2 -x {0.0 2.0 23 ------- null}
- -t 0.663840000000001 -s 0 -d 2 -p cbr -e 512 -c 2 -i 28 -a 2 -x {0.0 2.0 28 ------- null}
h -t 0.663840000000001 -s 0 -d 2 -p cbr -e 512 -c 2 -i 28 -a 2 -x {0.0 2.0 -1 ------- null}
+ -t 0.665 -s 0 -d 2 -p cbr -e 512 -c 2 -i 33 -a 2 -x {0.0 2.0 33 ------- null}
r -t 0.666285714285715 -s 0 -d 2 -p cbr -e 512 -c 2 -i 24 -a 2 -x {0.0 2.0 24 ------- null}
- -t 0.66969142857143 -s 0 -d 2 -p cbr -e 512 -c 2 -i 29 -a 2 -x {0.0 2.0 29 ------- null}
h -t 0.66969142857143 -s 0 -d 2 -p cbr -e 512 -c 2 -i 29 -a 2 -x {0.0 2.0 -1 ------- null}
+ -t 0.67 -s 0 -d 2 -p cbr -e 512 -c 2 -i 34 -a 2 -x {0.0 2.0 34 ------- null}
r -t 0.672137142857144 -s 0 -d 2 -p cbr -e 512 -c 2 -i 25 -a 2 -x {0.0 2.0 25 ------- null}
+ -t 0.675 -s 0 -d 2 -p cbr -e 512 -c 2 -i 35 -a 2 -x {0.0 2.0 35 ------- null}
- -t 0.675542857142859 -s 0 -d 2 -p cbr -e 512 -c 2 -i 30 -a 2 -x {0.0 2.0 30 ------- null}
h -t 0.675542857142859 -s 0 -d 2 -p cbr -e 512 -c 2 -i 30 -a 2 -x {0.0 2.0 -1 ------- null}
r -t 0.677988571428573 -s 0 -d 2 -p cbr -e 512 -c 2 -i 26 -a 2 -x {0.0 2.0 26 ------- null}
+ -t 0.68 -s 0 -d 2 -p cbr -e 512 -c 2 -i 36 -a 2 -x {0.0 2.0 36 ------- null}
- -t 0.681394285714287 -s 0 -d 2 -p cbr -e 512 -c 2 -i 31 -a 2 -x {0.0 2.0 31 ------- null}
h -t 0.681394285714287 -s 0 -d 2 -p cbr -e 512 -c 2 -i 31 -a 2 -x {0.0 2.0 -1 ------- null}
r -t 0.683840000000001 -s 0 -d 2 -p cbr -e 512 -c 2 -i 27 -a 2 -x {0.0 2.0 27 ------- null}
+ -t 0.685 -s 0 -d 2 -p cbr -e 512 -c 2 -i 37 -a 2 -x {0.0 2.0 37 ------- null}
- -t 0.687245714285716 -s 0 -d 2 -p cbr -e 512 -c 2 -i 32 -a 2 -x {0.0 2.0 32 ------- null}
h -t 0.687245714285716 -s 0 -d 2 -p cbr -e 512 -c 2 -i 32 -a 2 -x {0.0 2.0 -1 ------- null}
r -t 0.68969142857143 -s 0 -d 2 -p cbr -e 512 -c 2 -i 28 -a 2 -x {0.0 2.0 28 ------- null}
+ -t 0.69 -s 0 -d 2 -p cbr -e 512 -c 2 -i 38 -a 2 -x {0.0 2.0 38 ------- null}
- -t 0.693097142857144 -s 0 -d 2 -p cbr -e 512 -c 2 -i 33 -a 2 -x {0.0 2.0 33 ------- null}
h -t 0.693097142857144 -s 0 -d 2 -p cbr -e 512 -c 2 -i 33 -a 2 -x {0.0 2.0 -1 ------- null}
+ -t 0.695 -s 0 -d 2 -p cbr -e 512 -c 2 -i 39 -a 2 -x {0.0 2.0 39 ------- null}
r -t 0.695542857142858 -s 0 -d 2 -p cbr -e 512 -c 2 -i 29 -a 2 -x {0.0 2.0 29 ------- null}
- -t 0.698948571428573 -s 0 -d 2 -p cbr -e 512 -c 2 -i 34 -a 2 -x {0.0 2.0 34 ------- null}
h -t 0.698948571428573 -s 0 -d 2 -p cbr -e 512 -c 2 -i 34 -a 2 -x {0.0 2.0 -1 ------- null}
+ -t 0.7 -s 0 -d 2 -p cbr -e 512 -c 2 -i 40 -a 2 -x {0.0 2.0 40 ------- null}
r -t 0.701394285714287 -s 0 -d 2 -p cbr -e 512 -c 2 -i 30 -a 2 -x {0.0 2.0 30 ------- null}
- -t 0.704800000000002 -s 0 -d 2 -p cbr -e 512 -c 2 -i 35 -a 2 -x {0.0 2.0 35 ------- null}
h -t 0.704800000000002 -s 0 -d 2 -p cbr -e 512 -c 2 -i 35 -a 2 -x {0.0 2.0 -1 ------- null}
+ -t 0.705 -s 0 -d 2 -p cbr -e 512 -c 2 -i 41 -a 2 -x {0.0 2.0 41 ------- null}
r -t 0.707245714285716 -s 0 -d 2 -p cbr -e 512 -c 2 -i 31 -a 2 -x {0.0 2.0 31 ------- null}
+ -t 0.71 -s 0 -d 2 -p cbr -e 512 -c 2 -i 42 -a 2 -x {0.0 2.0 42 ------- null}
- -t 0.71065142857143 -s 0 -d 2 -p cbr -e 512 -c 2 -i 36 -a 2 -x {0.0 2.0 36 ------- null}
h -t 0.71065142857143 -s 0 -d 2 -p cbr -e 512 -c 2 -i 36 -a 2 -x {0.0 2.0 -1 ------- null}
r -t 0.713097142857144 -s 0 -d 2 -p cbr -e 512 -c 2 -i 32 -a 2 -x {0.0 2.0 32 ------- null}
+ -t 0.715 -s 0 -d 2 -p cbr -e 512 -c 2 -i 43 -a 2 -x {0.0 2.0 43 ------- null}
- -t 0.716502857142859 -s 0 -d 2 -p cbr -e 512 -c 2 -i 37 -a 2 -x {0.0 2.0 37 ------- null}
h -t 0.716502857142859 -s 0 -d 2 -p cbr -e 512 -c 2 -i 37 -a 2 -x {0.0 2.0 -1 ------- null}
r -t 0.718948571428573 -s 0 -d 2 -p cbr -e 512 -c 2 -i 33 -a 2 -x {0.0 2.0 33 ------- null}
+ -t 0.72 -s 0 -d 2 -p cbr -e 512 -c 2 -i 44 -a 2 -x {0.0 2.0 44 ------- null}
- -t 0.722354285714288 -s 0 -d 2 -p cbr -e 512 -c 2 -i 38 -a 2 -x {0.0 2.0 38 ------- null}
h -t 0.722354285714288 -s 0 -d 2 -p cbr -e 512 -c 2 -i 38 -a 2 -x {0.0 2.0 -1 ------- null}
r -t 0.724800000000002 -s 0 -d 2 -p cbr -e 512 -c 2 -i 34 -a 2 -x {0.0 2.0 34 ------- null}
+ -t 0.725 -s 0 -d 2 -p cbr -e 512 -c 2 -i 45 -a 2 -x {0.0 2.0 45 ------- null}
- -t 0.728205714285716 -s 0 -d 2 -p cbr -e 512 -c 2 -i 39 -a 2 -x {0.0 2.0 39 ------- null}
h -t 0.728205714285716 -s 0 -d 2 -p cbr -e 512 -c 2 -i 39 -a 2 -x {0.0 2.0 -1 ------- null}
+ -t 0.73 -s 0 -d 2 -p cbr -e 512 -c 2 -i 46 -a 2 -x {0.0 2.0 46 ------- null}
r -t 0.73065142857143 -s 0 -d 2 -p cbr -e 512 -c 2 -i 35 -a 2 -x {0.0 2.0 35 ------- null}
- -t 0.734057142857145 -s 0 -d 2 -p cbr -e 512 -c 2 -i 40 -a 2 -x {0.0 2.0 40 ------- null}
h -t 0.734057142857145 -s 0 -d 2 -p cbr -e 512 -c 2 -i 40 -a 2 -x {0.0 2.0 -1 ------- null}
+ -t 0.735 -s 0 -d 2 -p cbr -e 512 -c 2 -i 47 -a 2 -x {0.0 2.0 47 ------- null}
r -t 0.736502857142859 -s 0 -d 2 -p cbr -e 512 -c 2 -i 36 -a 2 -x {0.0 2.0 36 ------- null}
- -t 0.739908571428573 -s 0 -d 2 -p cbr -e 512 -c 2 -i 41 -a 2 -x {0.0 2.0 41 ------- null}
h -t 0.739908571428573 -s 0 -d 2 -p cbr -e 512 -c 2 -i 41 -a 2 -x {0.0 2.0 -1 ------- null}
+ -t 0.74 -s 0 -d 2 -p cbr -e 512 -c 2 -i 48 -a 2 -x {0.0 2.0 48 ------- null}
r -t 0.742354285714287 -s 0 -d 2 -p cbr -e 512 -c 2 -i 37 -a 2 -x {0.0 2.0 37 ------- null}
+ -t 0.745 -s 0 -d 2 -p cbr -e 512 -c 2 -i 49 -a 2 -x {0.0 2.0 49 ------- null}
- -t 0.745760000000002 -s 0 -d 2 -p cbr -e 512 -c 2 -i 42 -a 2 -x {0.0 2.0 42 ------- null}
h -t 0.745760000000002 -s 0 -d 2 -p cbr -e 512 -c 2 -i 42 -a 2 -x {0.0 2.0 -1 ------- null}
r -t 0.748205714285716 -s 0 -d 2 -p cbr -e 512 -c 2 -i 38 -a 2 -x {0.0 2.0 38 ------- null}
+ -t 0.75 -s 0 -d 2 -p cbr -e 512 -c 2 -i 50 -a 2 -x {0.0 2.0 50 ------- null}
- -t 0.751611428571431 -s 0 -d 2 -p cbr -e 512 -c 2 -i 43 -a 2 -x {0.0 2.0 43 ------- null}
h -t 0.751611428571431 -s 0 -d 2 -p cbr -e 512 -c 2 -i 43 -a 2 -x {0.0 2.0 -1 ------- null}
r -t 0.754057142857145 -s 0 -d 2 -p cbr -e 512 -c 2 -i 39 -a 2 -x {0.0 2.0 39 ------- null}
+ -t 0.755 -s 0 -d 2 -p cbr -e 512 -c 2 -i 51 -a 2 -x {0.0 2.0 51 ------- null}
- -t 0.757462857142859 -s 0 -d 2 -p cbr -e 512 -c 2 -i 44 -a 2 -x {0.0 2.0 44 ------- null}
h -t 0.757462857142859 -s 0 -d 2 -p cbr -e 512 -c 2 -i 44 -a 2 -x {0.0 2.0 -1 ------- null}
r -t 0.759908571428573 -s 0 -d 2 -p cbr -e 512 -c 2 -i 40 -a 2 -x {0.0 2.0 40 ------- null}
+ -t 0.76 -s 0 -d 2 -p cbr -e 512 -c 2 -i 52 -a 2 -x {0.0 2.0 52 ------- null}
- -t 0.763314285714288 -s 0 -d 2 -p cbr -e 512 -c 2 -i 45 -a 2 -x {0.0 2.0 45 ------- null}
h -t 0.763314285714288 -s 0 -d 2 -p cbr -e 512 -c 2 -i 45 -a 2 -x {0.0 2.0 -1 ------- null}
+ -t 0.765 -s 0 -d 2 -p cbr -e 512 -c 2 -i 53 -a 2 -x {0.0 2.0 53 ------- null}
r -t 0.765760000000002 -s 0 -d 2 -p cbr -e 512 -c 2 -i 41 -a 2 -x {0.0 2.0 41 ------- null}
- -t 0.769165714285716 -s 0 -d 2 -p cbr -e 512 -c 2 -i 46 -a 2 -x {0.0 2.0 46 ------- null}
h -t 0.769165714285716 -s 0 -d 2 -p cbr -e 512 -c 2 -i 46 -a 2 -x {0.0 2.0 -1 ------- null}
+ -t 0.77 -s 0 -d 2 -p cbr -e 512 -c 2 -i 54 -a 2 -x {0.0 2.0 54 ------- null}
r -t 0.771611428571431 -s 0 -d 2 -p cbr -e 512 -c 2 -i 42 -a 2 -x {0.0 2.0 42 ------- null}
+ -t 0.775 -s 0 -d 2 -p cbr -e 512 -c 2 -i 55 -a 2 -x {0.0 2.0 55 ------- null}
- -t 0.775017142857145 -s 0 -d 2 -p cbr -e 512 -c 2 -i 47 -a 2 -x {0.0 2.0 47 ------- null}
h -t 0.775017142857145 -s 0 -d 2 -p cbr -e 512 -c 2 -i 47 -a 2 -x {0.0 2.0 -1 ------- null}
r -t 0.777462857142859 -s 0 -d 2 -p cbr -e 512 -c 2 -i 43 -a 2 -x {0.0 2.0 43 ------- null}
+ -t 0.78 -s 0 -d 2 -p cbr -e 512 -c 2 -i 56 -a 2 -x {0.0 2.0 56 ------- null}
- -t 0.780868571428574 -s 0 -d 2 -p cbr -e 512 -c 2 -i 48 -a 2 -x {0.0 2.0 48 ------- null}
h -t 0.780868571428574 -s 0 -d 2 -p cbr -e 512 -c 2 -i 48 -a 2 -x {0.0 2.0 -1 ------- null}
r -t 0.783314285714288 -s 0 -d 2 -p cbr -e 512 -c 2 -i 44 -a 2 -x {0.0 2.0 44 ------- null}
+ -t 0.785 -s 0 -d 2 -p cbr -e 512 -c 2 -i 57 -a 2 -x {0.0 2.0 57 ------- null}
- -t 0.786720000000002 -s 0 -d 2 -p cbr -e 512 -c 2 -i 49 -a 2 -x {0.0 2.0 49 ------- null}
h -t 0.786720000000002 -s 0 -d 2 -p cbr -e 512 -c 2 -i 49 -a 2 -x {0.0 2.0 -1 ------- null}
r -t 0.789165714285716 -s 0 -d 2 -p cbr -e 512 -c 2 -i 45 -a 2 -x {0.0 2.0 45 ------- null}
+ -t 0.79 -s 0 -d 2 -p cbr -e 512 -c 2 -i 58 -a 2 -x {0.0 2.0 58 ------- null}
- -t 0.792571428571431 -s 0 -d 2 -p cbr -e 512 -c 2 -i 50 -a 2 -x {0.0 2.0 50 ------- null}
h -t 0.792571428571431 -s 0 -d 2 -p cbr -e 512 -c 2 -i 50 -a 2 -x {0.0 2.0 -1 ------- null}
+ -t 0.795 -s 0 -d 2 -p cbr -e 512 -c 2 -i 59 -a 2 -x {0.0 2.0 59 ------- null}
r -t 0.795017142857145 -s 0 -d 2 -p cbr -e 512 -c 2 -i 46 -a 2 -x {0.0 2.0 46 ------- null}
- -t 0.79842285714286 -s 0 -d 2 -p cbr -e 512 -c 2 -i 51 -a 2 -x {0.0 2.0 51 ------- null}
h -t 0.79842285714286 -s 0 -d 2 -p cbr -e 512 -c 2 -i 51 -a 2 -x {0.0 2.0 -1 ------- null}
+ -t 0.8 -s 0 -d 2 -p cbr -e 512 -c 2 -i 60 -a 2 -x {0.0 2.0 60 ------- null}
r -t 0.800868571428574 -s 0 -d 2 -p cbr -e 512 -c 2 -i 47 -a 2 -x {0.0 2.0 47 ------- null}
- -t 0.804274285714288 -s 0 -d 2 -p cbr -e 512 -c 2 -i 52 -a 2 -x {0.0 2.0 52 ------- null}
h -t 0.804274285714288 -s 0 -d 2 -p cbr -e 512 -c 2 -i 52 -a 2 -x {0.0 2.0 -1 ------- null}
+ -t 0.805 -s 0 -d 2 -p cbr -e 512 -c 2 -i 61 -a 2 -x {0.0 2.0 61 ------- null}
r -t 0.806720000000002 -s 0 -d 2 -p cbr -e 512 -c 2 -i 48 -a 2 -x {0.0 2.0 48 ------- null}
+ -t 0.81 -s 0 -d 2 -p cbr -e 512 -c 2 -i 62 -a 2 -x {0.0 2.0 62 ------- null}
- -t 0.810125714285717 -s 0 -d 2 -p cbr -e 512 -c 2 -i 53 -a 2 -x {0.0 2.0 53 ------- null}
h -t 0.810125714285717 -s 0 -d 2 -p cbr -e 512 -c 2 -i 53 -a 2 -x {0.0 2.0 -1 ------- null}
r -t 0.812571428571431 -s 0 -d 2 -p cbr -e 512 -c 2 -i 49 -a 2 -x {0.0 2.0 49 ------- null}
+ -t 0.815 -s 0 -d 2 -p cbr -e 512 -c 2 -i 63 -a 2 -x {0.0 2.0 63 ------- null}
- -t 0.815977142857145 -s 0 -d 2 -p cbr -e 512 -c 2 -i 54 -a 2 -x {0.0 2.0 54 ------- null}
h -t 0.815977142857145 -s 0 -d 2 -p cbr -e 512 -c 2 -i 54 -a 2 -x {0.0 2.0 -1 ------- null}
r -t 0.818422857142859 -s 0 -d 2 -p cbr -e 512 -c 2 -i 50 -a 2 -x {0.0 2.0 50 ------- null}
+ -t 0.82 -s 0 -d 2 -p cbr -e 512 -c 2 -i 64 -a 2 -x {0.0 2.0 64 ------- null}
- -t 0.821828571428574 -s 0 -d 2 -p cbr -e 512 -c 2 -i 55 -a 2 -x {0.0 2.0 55 ------- null}
h -t 0.821828571428574 -s 0 -d 2 -p cbr -e 512 -c 2 -i 55 -a 2 -x {0.0 2.0 -1 ------- null}
r -t 0.824274285714288 -s 0 -d 2 -p cbr -e 512 -c 2 -i 51 -a 2 -x {0.0 2.0 51 ------- null}
+ -t 0.825 -s 0 -d 2 -p cbr -e 512 -c 2 -i 65 -a 2 -x {0.0 2.0 65 ------- null}
- -t 0.827680000000003 -s 0 -d 2 -p cbr -e 512 -c 2 -i 56 -a 2 -x {0.0 2.0 56 ------- null}
h -t 0.827680000000003 -s 0 -d 2 -p cbr -e 512 -c 2 -i 56 -a 2 -x {0.0 2.0 -1 ------- null}
+ -t 0.83 -s 0 -d 2 -p cbr -e 512 -c 2 -i 66 -a 2 -x {0.0 2.0 66 ------- null}
r -t 0.830125714285717 -s 0 -d 2 -p cbr -e 512 -c 2 -i 52 -a 2 -x {0.0 2.0 52 ------- null}
- -t 0.833531428571431 -s 0 -d 2 -p cbr -e 512 -c 2 -i 57 -a 2 -x {0.0 2.0 57 ------- null}
h -t 0.833531428571431 -s 0 -d 2 -p cbr -e 512 -c 2 -i 57 -a 2 -x {0.0 2.0 -1 ------- null}
+ -t 0.835 -s 0 -d 2 -p cbr -e 512 -c 2 -i 67 -a 2 -x {0.0 2.0 67 ------- null}
r -t 0.835977142857145 -s 0 -d 2 -p cbr -e 512 -c 2 -i 53 -a 2 -x {0.0 2.0 53 ------- null}
- -t 0.83938285714286 -s 0 -d 2 -p cbr -e 512 -c 2 -i 58 -a 2 -x {0.0 2.0 58 ------- null}
h -t 0.83938285714286 -s 0 -d 2 -p cbr -e 512 -c 2 -i 58 -a 2 -x {0.0 2.0 -1 ------- null}
+ -t 0.84 -s 0 -d 2 -p cbr -e 512 -c 2 -i 68 -a 2 -x {0.0 2.0 68 ------- null}
r -t 0.841828571428574 -s 0 -d 2 -p cbr -e 512 -c 2 -i 54 -a 2 -x {0.0 2.0 54 ------- null}
+ -t 0.845 -s 0 -d 2 -p cbr -e 512 -c 2 -i 69 -a 2 -x {0.0 2.0 69 ------- null}
- -t 0.845234285714288 -s 0 -d 2 -p cbr -e 512 -c 2 -i 59 -a 2 -x {0.0 2.0 59 ------- null}
h -t 0.845234285714288 -s 0 -d 2 -p cbr -e 512 -c 2 -i 59 -a 2 -x {0.0 2.0 -1 ------- null}
r -t 0.847680000000003 -s 0 -d 2 -p cbr -e 512 -c 2 -i 55 -a 2 -x {0.0 2.0 55 ------- null}
+ -t 0.85 -s 0 -d 2 -p cbr -e 512 -c 2 -i 70 -a 2 -x {0.0 2.0 70 ------- null}
- -t 0.851085714285717 -s 0 -d 2 -p cbr -e 512 -c 2 -i 60 -a 2 -x {0.0 2.0 60 ------- null}
h -t 0.851085714285717 -s 0 -d 2 -p cbr -e 512 -c 2 -i 60 -a 2 -x {0.0 2.0 -1 ------- null}
r -t 0.853531428571431 -s 0 -d 2 -p cbr -e 512 -c 2 -i 56 -a 2 -x {0.0 2.0 56 ------- null}
+ -t 0.855 -s 0 -d 2 -p cbr -e 512 -c 2 -i 71 -a 2 -x {0.0 2.0 71 ------- null}
- -t 0.856937142857146 -s 0 -d 2 -p cbr -e 512 -c 2 -i 61 -a 2 -x {0.0 2.0 61 ------- null}
h -t 0.856937142857146 -s 0 -d 2 -p cbr -e 512 -c 2 -i 61 -a 2 -x {0.0 2.0 -1 ------- null}
r -t 0.85938285714286 -s 0 -d 2 -p cbr -e 512 -c 2 -i 57 -a 2 -x {0.0 2.0 57 ------- null}
+ -t 0.86 -s 0 -d 2 -p cbr -e 512 -c 2 -i 72 -a 2 -x {0.0 2.0 72 ------- null}
- -t 0.862788571428574 -s 0 -d 2 -p cbr -e 512 -c 2 -i 62 -a 2 -x {0.0 2.0 62 ------- null}
h -t 0.862788571428574 -s 0 -d 2 -p cbr -e 512 -c 2 -i 62 -a 2 -x {0.0 2.0 -1 ------- null}
+ -t 0.865 -s 0 -d 2 -p cbr -e 512 -c 2 -i 73 -a 2 -x {0.0 2.0 73 ------- null}
r -t 0.865234285714288 -s 0 -d 2 -p cbr -e 512 -c 2 -i 58 -a 2 -x {0.0 2.0 58 ------- null}
- -t 0.868640000000003 -s 0 -d 2 -p cbr -e 512 -c 2 -i 63 -a 2 -x {0.0 2.0 63 ------- null}
h -t 0.868640000000003 -s 0 -d 2 -p cbr -e 512 -c 2 -i 63 -a 2 -x {0.0 2.0 -1 ------- null}
+ -t 0.87 -s 0 -d 2 -p cbr -e 512 -c 2 -i 74 -a 2 -x {0.0 2.0 74 ------- null}
r -t 0.871085714285717 -s 0 -d 2 -p cbr -e 512 -c 2 -i 59 -a 2 -x {0.0 2.0 59 ------- null}
- -t 0.874491428571432 -s 0 -d 2 -p cbr -e 512 -c 2 -i 64 -a 2 -x {0.0 2.0 64 ------- null}
h -t 0.874491428571432 -s 0 -d 2 -p cbr -e 512 -c 2 -i 64 -a 2 -x {0.0 2.0 -1 ------- null}
+ -t 0.875 -s 0 -d 2 -p cbr -e 512 -c 2 -i 75 -a 2 -x {0.0 2.0 75 ------- null}
r -t 0.876937142857146 -s 0 -d 2 -p cbr -e 512 -c 2 -i 60 -a 2 -x {0.0 2.0 60 ------- null}
+ -t 0.88 -s 0 -d 2 -p cbr -e 512 -c 2 -i 76 -a 2 -x {0.0 2.0 76 ------- null}
- -t 0.88034285714286 -s 0 -d 2 -p cbr -e 512 -c 2 -i 65 -a 2 -x {0.0 2.0 65 ------- null}
h -t 0.88034285714286 -s 0 -d 2 -p cbr -e 512 -c 2 -i 65 -a 2 -x {0.0 2.0 -1 ------- null}
r -t 0.882788571428574 -s 0 -d 2 -p cbr -e 512 -c 2 -i 61 -a 2 -x {0.0 2.0 61 ------- null}
+ -t 0.885 -s 0 -d 2 -p cbr -e 512 -c 2 -i 77 -a 2 -x {0.0 2.0 77 ------- null}
- -t 0.886194285714289 -s 0 -d 2 -p cbr -e 512 -c 2 -i 66 -a 2 -x {0.0 2.0 66 ------- null}
h -t 0.886194285714289 -s 0 -d 2 -p cbr -e 512 -c 2 -i 66 -a 2 -x {0.0 2.0 -1 ------- null}
r -t 0.888640000000003 -s 0 -d 2 -p cbr -e 512 -c 2 -i 62 -a 2 -x {0.0 2.0 62 ------- null}
+ -t 0.89 -s 0 -d 2 -p cbr -e 512 -c 2 -i 78 -a 2 -x {0.0 2.0 78 ------- null}
- -t 0.892045714285717 -s 0 -d 2 -p cbr -e 512 -c 2 -i 67 -a 2 -x {0.0 2.0 67 ------- null}
h -t 0.892045714285717 -s 0 -d 2 -p cbr -e 512 -c 2 -i 67 -a 2 -x {0.0 2.0 -1 ------- null}
r -t 0.894491428571431 -s 0 -d 2 -p cbr -e 512 -c 2 -i 63 -a 2 -x {0.0 2.0 63 ------- null}
+ -t 0.895 -s 0 -d 2 -p cbr -e 512 -c 2 -i 79 -a 2 -x {0.0 2.0 79 ------- null}
- -t 0.897897142857146 -s 0 -d 2 -p cbr -e 512 -c 2 -i 68 -a 2 -x {0.0 2.0 68 ------- null}
h -t 0.897897142857146 -s 0 -d 2 -p cbr -e 512 -c 2 -i 68 -a 2 -x {0.0 2.0 -1 ------- null}
+ -t 0.9 -s 0 -d 2 -p cbr -e 512 -c 2 -i 80 -a 2 -x {0.0 2.0 80 ------- null}
r -t 0.90034285714286 -s 0 -d 2 -p cbr -e 512 -c 2 -i 64 -a 2 -x {0.0 2.0 64 ------- null}
- -t 0.903748571428575 -s 0 -d 2 -p cbr -e 512 -c 2 -i 69 -a 2 -x {0.0 2.0 69 ------- null}
h -t 0.903748571428575 -s 0 -d 2 -p cbr -e 512 -c 2 -i 69 -a 2 -x {0.0 2.0 -1 ------- null}
+ -t 0.905 -s 0 -d 2 -p cbr -e 512 -c 2 -i 81 -a 2 -x {0.0 2.0 81 ------- null}
r -t 0.906194285714289 -s 0 -d 2 -p cbr -e 512 -c 2 -i 65 -a 2 -x {0.0 2.0 65 ------- null}
- -t 0.909600000000003 -s 0 -d 2 -p cbr -e 512 -c 2 -i 70 -a 2 -x {0.0 2.0 70 ------- null}
h -t 0.909600000000003 -s 0 -d 2 -p cbr -e 512 -c 2 -i 70 -a 2 -x {0.0 2.0 -1 ------- null}
+ -t 0.91 -s 0 -d 2 -p cbr -e 512 -c 2 -i 82 -a 2 -x {0.0 2.0 82 ------- null}
r -t 0.912045714285717 -s 0 -d 2 -p cbr -e 512 -c 2 -i 66 -a 2 -x {0.0 2.0 66 ------- null}
+ -t 0.915 -s 0 -d 2 -p cbr -e 512 -c 2 -i 83 -a 2 -x {0.0 2.0 83 ------- null}
- -t 0.915451428571432 -s 0 -d 2 -p cbr -e 512 -c 2 -i 71 -a 2 -x {0.0 2.0 71 ------- null}
h -t 0.915451428571432 -s 0 -d 2 -p cbr -e 512 -c 2 -i 71 -a 2 -x {0.0 2.0 -1 ------- null}
r -t 0.917897142857146 -s 0 -d 2 -p cbr -e 512 -c 2 -i 67 -a 2 -x {0.0 2.0 67 ------- null}
+ -t 0.92 -s 0 -d 2 -p cbr -e 512 -c 2 -i 84 -a 2 -x {0.0 2.0 84 ------- null}
- -t 0.921302857142861 -s 0 -d 2 -p cbr -e 512 -c 2 -i 72 -a 2 -x {0.0 2.0 72 ------- null}
h -t 0.921302857142861 -s 0 -d 2 -p cbr -e 512 -c 2 -i 72 -a 2 -x {0.0 2.0 -1 ------- null}
r -t 0.923748571428575 -s 0 -d 2 -p cbr -e 512 -c 2 -i 68 -a 2 -x {0.0 2.0 68 ------- null}
+ -t 0.925 -s 0 -d 2 -p cbr -e 512 -c 2 -i 85 -a 2 -x {0.0 2.0 85 ------- null}
- -t 0.927154285714289 -s 0 -d 2 -p cbr -e 512 -c 2 -i 73 -a 2 -x {0.0 2.0 73 ------- null}
h -t 0.927154285714289 -s 0 -d 2 -p cbr -e 512 -c 2 -i 73 -a 2 -x {0.0 2.0 -1 ------- null}
r -t 0.929600000000003 -s 0 -d 2 -p cbr -e 512 -c 2 -i 69 -a 2 -x {0.0 2.0 69 ------- null}
+ -t 0.93 -s 0 -d 2 -p cbr -e 512 -c 2 -i 86 -a 2 -x {0.0 2.0 86 ------- null}
- -t 0.933005714285718 -s 0 -d 2 -p cbr -e 512 -c 2 -i 74 -a 2 -x {0.0 2.0 74 ------- null}
h -t 0.933005714285718 -s 0 -d 2 -p cbr -e 512 -c 2 -i 74 -a 2 -x {0.0 2.0 -1 ------- null}
+ -t 0.935 -s 0 -d 2 -p cbr -e 512 -c 2 -i 87 -a 2 -x {0.0 2.0 87 ------- null}
r -t 0.935451428571432 -s 0 -d 2 -p cbr -e 512 -c 2 -i 70 -a 2 -x {0.0 2.0 70 ------- null}
- -t 0.938857142857146 -s 0 -d 2 -p cbr -e 512 -c 2 -i 75 -a 2 -x {0.0 2.0 75 ------- null}
h -t 0.938857142857146 -s 0 -d 2 -p cbr -e 512 -c 2 -i 75 -a 2 -x {0.0 2.0 -1 ------- null}
+ -t 0.94 -s 0 -d 2 -p cbr -e 512 -c 2 -i 88 -a 2 -x {0.0 2.0 88 ------- null}
r -t 0.94130285714286 -s 0 -d 2 -p cbr -e 512 -c 2 -i 71 -a 2 -x {0.0 2.0 71 ------- null}
- -t 0.944708571428575 -s 0 -d 2 -p cbr -e 512 -c 2 -i 76 -a 2 -x {0.0 2.0 76 ------- null}
h -t 0.944708571428575 -s 0 -d 2 -p cbr -e 512 -c 2 -i 76 -a 2 -x {0.0 2.0 -1 ------- null}
+ -t 0.945 -s 0 -d 2 -p cbr -e 512 -c 2 -i 89 -a 2 -x {0.0 2.0 89 ------- null}
r -t 0.947154285714289 -s 0 -d 2 -p cbr -e 512 -c 2 -i 72 -a 2 -x {0.0 2.0 72 ------- null}
+ -t 0.95 -s 0 -d 2 -p cbr -e 512 -c 2 -i 90 -a 2 -x {0.0 2.0 90 ------- null}
- -t 0.950560000000004 -s 0 -d 2 -p cbr -e 512 -c 2 -i 77 -a 2 -x {0.0 2.0 77 ------- null}
h -t 0.950560000000004 -s 0 -d 2 -p cbr -e 512 -c 2 -i 77 -a 2 -x {0.0 2.0 -1 ------- null}
r -t 0.953005714285718 -s 0 -d 2 -p cbr -e 512 -c 2 -i 73 -a 2 -x {0.0 2.0 73 ------- null}
+ -t 0.955 -s 0 -d 2 -p cbr -e 512 -c 2 -i 91 -a 2 -x {0.0 2.0 91 ------- null}
- -t 0.956411428571432 -s 0 -d 2 -p cbr -e 512 -c 2 -i 78 -a 2 -x {0.0 2.0 78 ------- null}
h -t 0.956411428571432 -s 0 -d 2 -p cbr -e 512 -c 2 -i 78 -a 2 -x {0.0 2.0 -1 ------- null}
r -t 0.958857142857146 -s 0 -d 2 -p cbr -e 512 -c 2 -i 74 -a 2 -x {0.0 2.0 74 ------- null}
+ -t 0.96 -s 0 -d 2 -p cbr -e 512 -c 2 -i 92 -a 2 -x {0.0 2.0 92 ------- null}
- -t 0.962262857142861 -s 0 -d 2 -p cbr -e 512 -c 2 -i 79 -a 2 -x {0.0 2.0 79 ------- null}
h -t 0.962262857142861 -s 0 -d 2 -p cbr -e 512 -c 2 -i 79 -a 2 -x {0.0 2.0 -1 ------- null}
r -t 0.964708571428575 -s 0 -d 2 -p cbr -e 512 -c 2 -i 75 -a 2 -x {0.0 2.0 75 ------- null}
+ -t 0.965 -s 0 -d 2 -p cbr -e 512 -c 2 -i 93 -a 2 -x {0.0 2.0 93 ------- null}
- -t 0.968114285714289 -s 0 -d 2 -p cbr -e 512 -c 2 -i 80 -a 2 -x {0.0 2.0 80 ------- null}
h -t 0.968114285714289 -s 0 -d 2 -p cbr -e 512 -c 2 -i 80 -a 2 -x {0.0 2.0 -1 ------- null}
+ -t 0.97 -s 0 -d 2 -p cbr -e 512 -c 2 -i 94 -a 2 -x {0.0 2.0 94 ------- null}
r -t 0.970560000000004 -s 0 -d 2 -p cbr -e 512 -c 2 -i 76 -a 2 -x {0.0 2.0 76 ------- null}
- -t 0.973965714285718 -s 0 -d 2 -p cbr -e 512 -c 2 -i 81 -a 2 -x {0.0 2.0 81 ------- null}